 Gaussian 16, Revision A.03,
 Gaussian 16:  EM64L-G16RevA.03 25-Dec-2016

 ----------------------------------------------------------------------
 #P LC-wHPBE/TZVP iop(3/107=0183000000, 3/108=0183000000) scf=(conver=6
 ,fermi,ndamp=35,noincfock,novaracc,vshift=500,xqc)
 ----------------------------------------------------------------------

 ----------
 H32 C26 N4
 ----------
 Symbolic Z-matrix:
 Charge =  2 Multiplicity = 1

                         Standard orientation:
 ---------------------------------------------------------------------
 Center     Atomic      Atomic             Coordinates (Angstroms)
 Number     Number       Type             X           Y           Z
 ---------------------------------------------------------------------
      1          6           0        2.823961   -0.444264    1.111805
      2          6           0        3.524911   -0.000100    0.000001
      3          6           0        1.447297   -0.438089    1.110761
      4          6           0        2.823968    0.444049   -1.111840
      5          6           0        0.740218   -0.000107   -0.000031
      6          6           0        1.447325    0.437860   -1.110830
      7          1           0        0.914462   -0.797765    1.980986
      8          1           0        3.355363    0.783593   -1.991035
      9          1           0        0.914491    0.797490   -1.981076
     10          6           0       -0.740229   -0.000109   -0.000016
     11          6           0       -1.447379   -0.437502   -1.110991
     12          6           0       -1.447259    0.437322    1.111037
     13          6           0       -2.824033   -0.443666   -1.111944
     14          6           0       -2.823909    0.443539    1.112143
     15          6           0       -3.524910   -0.000034    0.000126
     16          1           0       -0.914614   -0.796709   -1.981454
     17          1           0       -0.914365    0.796519    1.981427
     18          1           0       -3.355477   -0.782802   -1.991269
     19          1           0       -3.355249    0.782652    1.991539
     20          1           0        3.355316   -0.783824    1.991014
     21          6           0       -4.975135   -0.000032    0.000145
     22          6           0       -6.146520    0.565054    0.408043
     23          6           0       -6.146453   -0.565050   -0.408017
     24          7           0       -6.780980    1.491697    1.066857
     25          7           0       -6.780843   -1.491604   -1.067037
     26          6           0       -6.057956    2.591048    1.684578
     27          1           0       -6.154708    2.545100    2.768364
     28          1           0       -5.008879    2.544629    1.410837
     29          1           0       -6.464629    3.537319    1.332266
     30          6           0       -8.228734    1.518275    1.186143
     31          1           0       -8.494477    1.775383    2.209103
     32          1           0       -8.659441    2.259109    0.513350
     33          1           0       -8.642938    0.539771    0.968827
     34          6           0       -6.057730   -2.591089   -1.684422
     35          1           0       -6.153192   -2.544651   -2.768303
     36          1           0       -5.008941   -2.545387   -1.409434
     37          1           0       -6.465326   -3.537274   -1.332961
     38          6           0       -8.228631   -1.518112   -1.186291
     39          1           0       -8.494234   -1.779605   -2.208151
     40          1           0       -8.659838   -2.255827   -0.510389
     41          1           0       -8.642467   -0.538433   -0.973542
     42          6           0        4.975109   -0.000078    0.000026
     43          6           0        6.146534   -0.565080    0.407916
     44          6           0        6.146403    0.565147   -0.407945
     45          7           0        6.781069   -1.491701    1.066705
     46          7           0        6.780732    1.491927   -1.066700
     47          6           0        6.058202   -2.591312    1.684129
     48          1           0        6.154554   -2.545406    2.767953
     49          1           0        5.009205   -2.545245    1.410016
     50          1           0        6.465319   -3.537423    1.331906
     51          6           0        8.228858   -1.518145    1.185797
     52          1           0        8.494704   -1.776946    2.208295
     53          1           0        8.659724   -2.257735    0.511728
     54          1           0        8.642813   -0.539154    0.970202
     55          6           0        6.057561    2.591370   -1.684106
     56          1           0        6.153074    2.544964   -2.767982
     57          1           0        5.008776    2.545628   -1.409122
     58          1           0        6.465122    3.537559   -1.332610
     59          6           0        8.228499    1.518584   -1.185941
     60          1           0        8.494145    1.779106   -2.208049
     61          1           0        8.659520    2.257040   -0.510729
     62          1           0        8.642516    0.539209   -0.972160
 ---------------------------------------------------------------------

 SCF Done:  E(RLC-wHPBE) =  -1227.64167834     A.U. after   14 cycles

 The electronic state is 1-A.
 Alpha  occ. eigenvalues --  -14.33950 -14.33950 -14.33949 -14.33949 -10.26421
 Alpha  occ. eigenvalues --  -10.26421 -10.26384 -10.26384 -10.22653 -10.22653
 Alpha  occ. eigenvalues --  -10.20106 -10.20106 -10.20105 -10.20105 -10.20016
 Alpha  occ. eigenvalues --  -10.20015 -10.20015 -10.20015 -10.19673 -10.19672
 Alpha  occ. eigenvalues --  -10.18286 -10.18272 -10.17582 -10.17582 -10.17581
 Alpha  occ. eigenvalues --  -10.17581 -10.16919 -10.16918 -10.16917 -10.16916
 Alpha  occ. eigenvalues --   -1.22240  -1.22240  -1.19495  -1.19495  -1.14333
 Alpha  occ. eigenvalues --   -1.14329  -1.09358  -1.07704  -1.01611  -0.97486
 Alpha  occ. eigenvalues --   -0.97238  -0.96860  -0.96171  -0.95964  -0.95819
 Alpha  occ. eigenvalues --   -0.95803  -0.94691  -0.94690  -0.93679  -0.93466
 Alpha  occ. eigenvalues --   -0.88700  -0.85277  -0.83522  -0.82896  -0.79235
 Alpha  occ. eigenvalues --   -0.78933  -0.78813  -0.78710  -0.78305  -0.78063
 Alpha  occ. eigenvalues --   -0.75069  -0.73854  -0.73843  -0.73777  -0.73092
 Alpha  occ. eigenvalues --   -0.72864  -0.72344  -0.71484  -0.71482  -0.71129
 Alpha  occ. eigenvalues --   -0.69069  -0.67687  -0.67361  -0.66429  -0.66395
 Alpha  occ. eigenvalues --   -0.65955  -0.65764  -0.65612  -0.65577  -0.65520
 Alpha  occ. eigenvalues --   -0.65261  -0.64413  -0.64162  -0.64139  -0.63987
 Alpha  occ. eigenvalues --   -0.63984  -0.63492  -0.63136  -0.63116  -0.62925
 Alpha  occ. eigenvalues --   -0.62327  -0.61831  -0.61785  -0.60928  -0.60484
 Alpha  occ. eigenvalues --   -0.59147  -0.58459  -0.57342  -0.56897  -0.54338
 Alpha  occ. eigenvalues --   -0.54328  -0.53609  -0.50488  -0.50387  -0.50314
 Alpha  occ. eigenvalues --   -0.47016  -0.45395
 Alpha virt. eigenvalues --   -0.19661  -0.16398  -0.14325  -0.14280  -0.10728
 Alpha virt. eigenvalues --   -0.10727  -0.10382  -0.09621  -0.09602  -0.08348
 Alpha virt. eigenvalues --   -0.06466  -0.06380  -0.05479  -0.05100  -0.04723

 Mulliken charges:
               1
     1  C   -0.092965
     2  C    0.147324
     3  C   -0.148333
     4  C   -0.092968
     5  C    0.017102
     6  C   -0.148307
     7  H    0.158000
     8  H    0.153859
     9  H    0.157986
    10  C    0.017126
    11  C   -0.148300
    12  C   -0.148342
    13  C   -0.092982
    14  C   -0.092953
    15  C    0.147323
    16  H    0.157983
    17  H    0.158000
    18  H    0.153861
    19  H    0.153838
    20  H    0.153837
    21  C   -0.477902
    22  C    0.073774
    23  C    0.073696
    24  N    0.019238
    25  N    0.019306
    26  C   -0.258650
    27  H    0.178111
    28  H    0.153382
    29  H    0.174223
    30  C   -0.260423
    31  H    0.173845
    32  H    0.184993
    33  H    0.147810
    34  C   -0.258989
    35  H    0.178195
    36  H    0.153426
    37  H    0.174323
    38  C   -0.260983
    39  H    0.173941
    40  H    0.185114
    41  H    0.148024
    42  C   -0.477921
    43  C    0.073787
    44  C    0.073725
    45  N    0.019285
    46  N    0.019298
    47  C   -0.258750
    48  H    0.178142
    49  H    0.153384
    50  H    0.174254
    51  C   -0.260638
    52  H    0.173880
    53  H    0.185036
    54  H    0.147890
    55  C   -0.258934
    56  H    0.178187
    57  H    0.153420
    58  H    0.174300
    59  C   -0.260871
    60  H    0.173923
    61  H    0.185089
    62  H    0.147970
 Sum of Mulliken charges =   2.00000

 Dipole moment (field-independent basis, Debye):
    X=             -0.0002    Y=              0.0001    Z=             -0.0004  Tot=              0.0005
 Quadrupole moment (field-independent basis, Debye-Ang):
   XX=            267.2203   YY=           -135.4685   ZZ=           -143.9231
   XY=              0.0040   XZ=              0.0008   YZ=             -0.0014

 Normal termination of Gaussian 16 at Tue Jan 26 08:28:11 2021.
