 Gaussian 16, Revision A.03,
 Gaussian 16:  EM64L-G16RevA.03 25-Dec-2016

 ----------------------------------------------------------------------
 #P LC-wHPBE/TZVP iop(3/107=0328100000, 3/108=0328100000) scf=(conver=6
 ,fermi,ndamp=35,noincfock,novaracc,vshift=500,xqc)
 ----------------------------------------------------------------------

 ----------
 H32 C26 N4
 ----------
 Symbolic Z-matrix:
 Charge =  2 Multiplicity = 1

                         Standard orientation:
 ---------------------------------------------------------------------
 Center     Atomic      Atomic             Coordinates (Angstroms)
 Number     Number       Type             X           Y           Z
 ---------------------------------------------------------------------
      1          6           0        2.823961   -0.444264    1.111805
      2          6           0        3.524911   -0.000100    0.000001
      3          6           0        1.447297   -0.438089    1.110761
      4          6           0        2.823968    0.444049   -1.111840
      5          6           0        0.740218   -0.000107   -0.000031
      6          6           0        1.447325    0.437860   -1.110830
      7          1           0        0.914462   -0.797765    1.980986
      8          1           0        3.355363    0.783593   -1.991035
      9          1           0        0.914491    0.797490   -1.981076
     10          6           0       -0.740229   -0.000109   -0.000016
     11          6           0       -1.447379   -0.437502   -1.110991
     12          6           0       -1.447259    0.437322    1.111037
     13          6           0       -2.824033   -0.443666   -1.111944
     14          6           0       -2.823909    0.443539    1.112143
     15          6           0       -3.524910   -0.000034    0.000126
     16          1           0       -0.914614   -0.796709   -1.981454
     17          1           0       -0.914365    0.796519    1.981427
     18          1           0       -3.355477   -0.782802   -1.991269
     19          1           0       -3.355249    0.782652    1.991539
     20          1           0        3.355316   -0.783824    1.991014
     21          6           0       -4.975135   -0.000032    0.000145
     22          6           0       -6.146520    0.565054    0.408043
     23          6           0       -6.146453   -0.565050   -0.408017
     24          7           0       -6.780980    1.491697    1.066857
     25          7           0       -6.780843   -1.491604   -1.067037
     26          6           0       -6.057956    2.591048    1.684578
     27          1           0       -6.154708    2.545100    2.768364
     28          1           0       -5.008879    2.544629    1.410837
     29          1           0       -6.464629    3.537319    1.332266
     30          6           0       -8.228734    1.518275    1.186143
     31          1           0       -8.494477    1.775383    2.209103
     32          1           0       -8.659441    2.259109    0.513350
     33          1           0       -8.642938    0.539771    0.968827
     34          6           0       -6.057730   -2.591089   -1.684422
     35          1           0       -6.153192   -2.544651   -2.768303
     36          1           0       -5.008941   -2.545387   -1.409434
     37          1           0       -6.465326   -3.537274   -1.332961
     38          6           0       -8.228631   -1.518112   -1.186291
     39          1           0       -8.494234   -1.779605   -2.208151
     40          1           0       -8.659838   -2.255827   -0.510389
     41          1           0       -8.642467   -0.538433   -0.973542
     42          6           0        4.975109   -0.000078    0.000026
     43          6           0        6.146534   -0.565080    0.407916
     44          6           0        6.146403    0.565147   -0.407945
     45          7           0        6.781069   -1.491701    1.066705
     46          7           0        6.780732    1.491927   -1.066700
     47          6           0        6.058202   -2.591312    1.684129
     48          1           0        6.154554   -2.545406    2.767953
     49          1           0        5.009205   -2.545245    1.410016
     50          1           0        6.465319   -3.537423    1.331906
     51          6           0        8.228858   -1.518145    1.185797
     52          1           0        8.494704   -1.776946    2.208295
     53          1           0        8.659724   -2.257735    0.511728
     54          1           0        8.642813   -0.539154    0.970202
     55          6           0        6.057561    2.591370   -1.684106
     56          1           0        6.153074    2.544964   -2.767982
     57          1           0        5.008776    2.545628   -1.409122
     58          1           0        6.465122    3.537559   -1.332610
     59          6           0        8.228499    1.518584   -1.185941
     60          1           0        8.494145    1.779106   -2.208049
     61          1           0        8.659520    2.257040   -0.510729
     62          1           0        8.642516    0.539209   -0.972160
 ---------------------------------------------------------------------

 SCF Done:  E(RLC-wHPBE) =  -1227.88353062     A.U. after   14 cycles

 The electronic state is 1-A.
 Alpha  occ. eigenvalues --  -14.41738 -14.41738 -14.41737 -14.41737 -10.35317
 Alpha  occ. eigenvalues --  -10.35317 -10.35276 -10.35276 -10.31198 -10.31198
 Alpha  occ. eigenvalues --  -10.28166 -10.28166 -10.28165 -10.28165 -10.28080
 Alpha  occ. eigenvalues --  -10.28080 -10.28080 -10.28080 -10.27958 -10.27958
 Alpha  occ. eigenvalues --  -10.26559 -10.26545 -10.25851 -10.25850 -10.25849
 Alpha  occ. eigenvalues --  -10.25849 -10.25105 -10.25104 -10.25103 -10.25102
 Alpha  occ. eigenvalues --   -1.30894  -1.30894  -1.27738  -1.27738  -1.22482
 Alpha  occ. eigenvalues --   -1.22475  -1.17965  -1.16193  -1.09766  -1.05439
 Alpha  occ. eigenvalues --   -1.05063  -1.04744  -1.03795  -1.03572  -1.03360
 Alpha  occ. eigenvalues --   -1.03345  -1.02023  -1.02021  -1.00879  -1.00625
 Alpha  occ. eigenvalues --   -0.95869  -0.92335  -0.90344  -0.89737  -0.85764
 Alpha  occ. eigenvalues --   -0.85387  -0.85005  -0.84881  -0.84471  -0.84183
 Alpha  occ. eigenvalues --   -0.81147  -0.80303  -0.80222  -0.79667  -0.78832
 Alpha  occ. eigenvalues --   -0.78524  -0.78154  -0.77499  -0.77492  -0.76866
 Alpha  occ. eigenvalues --   -0.74744  -0.73329  -0.73031  -0.71984  -0.71914
 Alpha  occ. eigenvalues --   -0.71495  -0.71152  -0.71090  -0.70980  -0.70874
 Alpha  occ. eigenvalues --   -0.70663  -0.69668  -0.69452  -0.69428  -0.69272
 Alpha  occ. eigenvalues --   -0.69269  -0.68735  -0.68252  -0.68218  -0.68203
 Alpha  occ. eigenvalues --   -0.67604  -0.66875  -0.66840  -0.65924  -0.65679
 Alpha  occ. eigenvalues --   -0.64037  -0.63358  -0.62113  -0.61657  -0.58941
 Alpha  occ. eigenvalues --   -0.58932  -0.57510  -0.54060  -0.53850  -0.53746
 Alpha  occ. eigenvalues --   -0.50288  -0.48371
 Alpha virt. eigenvalues --   -0.17672  -0.13986  -0.11819  -0.11775  -0.07713
 Alpha virt. eigenvalues --   -0.07712  -0.07360  -0.07151  -0.07148  -0.05295
 Alpha virt. eigenvalues --   -0.04102  -0.04027  -0.03062  -0.02578  -0.02016

 Mulliken charges:
               1
     1  C   -0.105563
     2  C    0.140663
     3  C   -0.163343
     4  C   -0.105576
     5  C    0.001833
     6  C   -0.163311
     7  H    0.179957
     8  H    0.176461
     9  H    0.179943
    10  C    0.001854
    11  C   -0.163305
    12  C   -0.163347
    13  C   -0.105589
    14  C   -0.105559
    15  C    0.140666
    16  H    0.179941
    17  H    0.179957
    18  H    0.176463
    19  H    0.176440
    20  H    0.176438
    21  C   -0.440933
    22  C    0.070303
    23  C    0.070256
    24  N   -0.006806
    25  N   -0.006775
    26  C   -0.253015
    27  H    0.179220
    28  H    0.149755
    29  H    0.173397
    30  C   -0.253916
    31  H    0.172985
    32  H    0.186373
    33  H    0.143542
    34  C   -0.253355
    35  H    0.179302
    36  H    0.149808
    37  H    0.173488
    38  C   -0.254502
    39  H    0.173073
    40  H    0.186499
    41  H    0.143787
    42  C   -0.440954
    43  C    0.070327
    44  C    0.070287
    45  N   -0.006774
    46  N   -0.006775
    47  C   -0.253116
    48  H    0.179251
    49  H    0.149760
    50  H    0.173425
    51  C   -0.254140
    52  H    0.173017
    53  H    0.186418
    54  H    0.143632
    55  C   -0.253303
    56  H    0.179296
    57  H    0.149802
    58  H    0.173467
    59  C   -0.254382
    60  H    0.173057
    61  H    0.186472
    62  H    0.143724
 Sum of Mulliken charges =   2.00000

 Dipole moment (field-independent basis, Debye):
    X=             -0.0002    Y=              0.0001    Z=             -0.0004  Tot=              0.0005
 Quadrupole moment (field-independent basis, Debye-Ang):
   XX=            266.7807   YY=           -135.3986   ZZ=           -143.1314
   XY=              0.0040   XZ=              0.0007   YZ=             -0.0015

 Normal termination of Gaussian 16 at Tue Jan 26 04:24:15 2021.
