 Gaussian 16, Revision A.03,
 Gaussian 16:  EM64L-G16RevA.03 25-Dec-2016

 ----------------------------------------------------------------------
 #P LC-wHPBE/TZVP iop(3/107=0221900000, 3/108=0221900000) scf=(conver=6
 ,fermi,ndamp=35,noincfock,novaracc,vshift=500,xqc)
 ----------------------------------------------------------------------

 ----------
 H32 C26 N4
 ----------
 Symbolic Z-matrix:
 Charge =  3 Multiplicity = 2

                         Standard orientation:
 ---------------------------------------------------------------------
 Center     Atomic      Atomic             Coordinates (Angstroms)
 Number     Number       Type             X           Y           Z
 ---------------------------------------------------------------------
      1          6           0        2.823961   -0.444264    1.111805
      2          6           0        3.524911   -0.000100    0.000001
      3          6           0        1.447297   -0.438089    1.110761
      4          6           0        2.823968    0.444049   -1.111840
      5          6           0        0.740218   -0.000107   -0.000031
      6          6           0        1.447325    0.437860   -1.110830
      7          1           0        0.914462   -0.797765    1.980986
      8          1           0        3.355363    0.783593   -1.991035
      9          1           0        0.914491    0.797490   -1.981076
     10          6           0       -0.740229   -0.000109   -0.000016
     11          6           0       -1.447379   -0.437502   -1.110991
     12          6           0       -1.447259    0.437322    1.111037
     13          6           0       -2.824033   -0.443666   -1.111944
     14          6           0       -2.823909    0.443539    1.112143
     15          6           0       -3.524910   -0.000034    0.000126
     16          1           0       -0.914614   -0.796709   -1.981454
     17          1           0       -0.914365    0.796519    1.981427
     18          1           0       -3.355477   -0.782802   -1.991269
     19          1           0       -3.355249    0.782652    1.991539
     20          1           0        3.355316   -0.783824    1.991014
     21          6           0       -4.975135   -0.000032    0.000145
     22          6           0       -6.146520    0.565054    0.408043
     23          6           0       -6.146453   -0.565050   -0.408017
     24          7           0       -6.780980    1.491697    1.066857
     25          7           0       -6.780843   -1.491604   -1.067037
     26          6           0       -6.057956    2.591048    1.684578
     27          1           0       -6.154708    2.545100    2.768364
     28          1           0       -5.008879    2.544629    1.410837
     29          1           0       -6.464629    3.537319    1.332266
     30          6           0       -8.228734    1.518275    1.186143
     31          1           0       -8.494477    1.775383    2.209103
     32          1           0       -8.659441    2.259109    0.513350
     33          1           0       -8.642938    0.539771    0.968827
     34          6           0       -6.057730   -2.591089   -1.684422
     35          1           0       -6.153192   -2.544651   -2.768303
     36          1           0       -5.008941   -2.545387   -1.409434
     37          1           0       -6.465326   -3.537274   -1.332961
     38          6           0       -8.228631   -1.518112   -1.186291
     39          1           0       -8.494234   -1.779605   -2.208151
     40          1           0       -8.659838   -2.255827   -0.510389
     41          1           0       -8.642467   -0.538433   -0.973542
     42          6           0        4.975109   -0.000078    0.000026
     43          6           0        6.146534   -0.565080    0.407916
     44          6           0        6.146403    0.565147   -0.407945
     45          7           0        6.781069   -1.491701    1.066705
     46          7           0        6.780732    1.491927   -1.066700
     47          6           0        6.058202   -2.591312    1.684129
     48          1           0        6.154554   -2.545406    2.767953
     49          1           0        5.009205   -2.545245    1.410016
     50          1           0        6.465319   -3.537423    1.331906
     51          6           0        8.228858   -1.518145    1.185797
     52          1           0        8.494704   -1.776946    2.208295
     53          1           0        8.659724   -2.257735    0.511728
     54          1           0        8.642813   -0.539154    0.970202
     55          6           0        6.057561    2.591370   -1.684106
     56          1           0        6.153074    2.544964   -2.767982
     57          1           0        5.008776    2.545628   -1.409122
     58          1           0        6.465122    3.537559   -1.332610
     59          6           0        8.228499    1.518584   -1.185941
     60          1           0        8.494145    1.779106   -2.208049
     61          1           0        8.659520    2.257040   -0.510729
     62          1           0        8.642516    0.539209   -0.972160
 ---------------------------------------------------------------------

 SCF Done:  E(ULC-wHPBE) =  -1227.25363557     A.U. after   32 cycles

 The electronic state is 2-A.
 Alpha  occ. eigenvalues --  -14.47577 -14.47576 -14.47572 -14.47571 -10.39803
 Alpha  occ. eigenvalues --  -10.39799 -10.39766 -10.39761 -10.36183 -10.36178
 Alpha  occ. eigenvalues --  -10.35240 -10.35237 -10.34139 -10.34125 -10.31998
 Alpha  occ. eigenvalues --  -10.31997 -10.31996 -10.31994 -10.31857 -10.31856
 Alpha  occ. eigenvalues --  -10.31855 -10.31854 -10.31639 -10.31638 -10.31635
 Alpha  occ. eigenvalues --  -10.31635 -10.31246 -10.31246 -10.31243 -10.31242
 Alpha  occ. eigenvalues --   -1.35555  -1.35551  -1.32497  -1.32492  -1.27703
 Alpha  occ. eigenvalues --   -1.27687  -1.24607  -1.22740  -1.16725  -1.12050
 Alpha  occ. eigenvalues --   -1.11997  -1.11340  -1.08035  -1.07919  -1.07574
 Alpha  occ. eigenvalues --   -1.07567  -1.06839  -1.06835  -1.05849  -1.05648
 Alpha  occ. eigenvalues --   -1.02912  -0.99807  -0.97725  -0.97298  -0.92951
 Alpha  occ. eigenvalues --   -0.92554  -0.90454  -0.90343  -0.90303  -0.89940
 Alpha  occ. eigenvalues --   -0.88142  -0.86624  -0.86271  -0.85839  -0.85755
 Alpha  occ. eigenvalues --   -0.85088  -0.84859  -0.83979  -0.83244  -0.83239
 Alpha  occ. eigenvalues --   -0.82874  -0.81372  -0.80976  -0.79628  -0.79375
 Alpha  occ. eigenvalues --   -0.78904  -0.78733  -0.78063  -0.77325  -0.77274
 Alpha  occ. eigenvalues --   -0.76421  -0.76311  -0.76300  -0.75860  -0.75044
 Alpha  occ. eigenvalues --   -0.74836  -0.74695  -0.74691  -0.74619  -0.74096
 Alpha  occ. eigenvalues --   -0.74088  -0.73811  -0.73803  -0.72703  -0.72521
 Alpha  occ. eigenvalues --   -0.71881  -0.71728  -0.70749  -0.70573  -0.67573
 Alpha  occ. eigenvalues --   -0.66145  -0.66139  -0.63946  -0.63825  -0.63732
 Alpha  occ. eigenvalues --   -0.59268  -0.58217
 Alpha virt. eigenvalues --   -0.31049  -0.27289  -0.25515  -0.25502  -0.20917
 Alpha virt. eigenvalues --   -0.20401  -0.20395  -0.19128  -0.18198  -0.18195
 Alpha virt. eigenvalues --   -0.14525  -0.14476  -0.14152  -0.13646  -0.12819

  Beta  occ. eigenvalues --  -14.47364 -14.47362 -14.47359 -14.47358 -10.39818
  Beta  occ. eigenvalues --  -10.39814 -10.39781 -10.39777 -10.36186 -10.36181
  Beta  occ. eigenvalues --  -10.35047 -10.35044 -10.34008 -10.33994 -10.32013
  Beta  occ. eigenvalues --  -10.32012 -10.32010 -10.32009 -10.31790 -10.31788
  Beta  occ. eigenvalues --  -10.31788 -10.31786 -10.31644 -10.31643 -10.31640
  Beta  occ. eigenvalues --  -10.31639 -10.31252 -10.31251 -10.31248 -10.31247
  Beta  occ. eigenvalues --   -1.35339  -1.35334  -1.32196  -1.32192  -1.27425
  Beta  occ. eigenvalues --   -1.27409  -1.24306  -1.22467  -1.16337  -1.11958
  Beta  occ. eigenvalues --   -1.11560  -1.11268  -1.07985  -1.07854  -1.07525
  Beta  occ. eigenvalues --   -1.07517  -1.06794  -1.06789  -1.05792  -1.05568
  Beta  occ. eigenvalues --   -1.02835  -0.99633  -0.97574  -0.97090  -0.92856
  Beta  occ. eigenvalues --   -0.92458  -0.90329  -0.90212  -0.90192  -0.89817
  Beta  occ. eigenvalues --   -0.88053  -0.86406  -0.85949  -0.85750  -0.85553
  Beta  occ. eigenvalues --   -0.85005  -0.84735  -0.83840  -0.82837  -0.82832
  Beta  occ. eigenvalues --   -0.82639  -0.81233  -0.80872  -0.79590  -0.79134
  Beta  occ. eigenvalues --   -0.78521  -0.78518  -0.77968  -0.77239  -0.77154
  Beta  occ. eigenvalues --   -0.76382  -0.76270  -0.75829  -0.75487  -0.74901
  Beta  occ. eigenvalues --   -0.74668  -0.74582  -0.74578  -0.74469  -0.74067
  Beta  occ. eigenvalues --   -0.74059  -0.73722  -0.73301  -0.72658  -0.72492
  Beta  occ. eigenvalues --   -0.71779  -0.71652  -0.70687  -0.70446  -0.66001
  Beta  occ. eigenvalues --   -0.65259  -0.65255  -0.63690  -0.63634  -0.60941
  Beta  occ. eigenvalues --   -0.55519
  Beta virt. eigenvalues --   -0.45750  -0.30480  -0.26440  -0.25037  -0.24843
  Beta virt. eigenvalues --   -0.20287  -0.19892  -0.19888  -0.18412  -0.18147
  Beta virt. eigenvalues --   -0.18143  -0.14497  -0.14438  -0.14131  -0.13606

 Mulliken charges and spin densities:
               1          2
     1  C   -0.080015  -0.021085
     2  C    0.164535   0.141033
     3  C   -0.127097   0.048819
     4  C   -0.080018  -0.021080
     5  C    0.026027   0.091103
     6  C   -0.127069   0.048802
     7  H    0.191518  -0.002861
     8  H    0.187583   0.000473
     9  H    0.191503  -0.002860
    10  C    0.026068   0.090977
    11  C   -0.127068   0.048839
    12  C   -0.127108   0.048862
    13  C   -0.080038  -0.021111
    14  C   -0.080011  -0.021126
    15  C    0.164501   0.140984
    16  H    0.191489  -0.002862
    17  H    0.191505  -0.002862
    18  H    0.187582   0.000475
    19  H    0.187561   0.000476
    20  H    0.187562   0.000473
    21  C   -0.470913  -0.014480
    22  C    0.082022  -0.005482
    23  C    0.081978  -0.005465
    24  N    0.048971   0.106831
    25  N    0.049042   0.106852
    26  C   -0.254457  -0.004619
    27  H    0.201342   0.006355
    28  H    0.145031   0.000020
    29  H    0.197594   0.005606
    30  C   -0.259233  -0.004565
    31  H    0.193930   0.004575
    32  H    0.208346   0.006523
    33  H    0.154720   0.000542
    34  C   -0.254817  -0.004616
    35  H    0.201421   0.006360
    36  H    0.145089   0.000021
    37  H    0.197694   0.005599
    38  C   -0.259836  -0.004570
    39  H    0.194002   0.004539
    40  H    0.208477   0.006539
    41  H    0.154976   0.000561
    42  C   -0.470917  -0.014468
    43  C    0.082054  -0.005497
    44  C    0.081999  -0.005495
    45  N    0.049050   0.106980
    46  N    0.049063   0.106980
    47  C   -0.254565  -0.004624
    48  H    0.201388   0.006365
    49  H    0.145051   0.000021
    50  H    0.197640   0.005612
    51  C   -0.259464  -0.004573
    52  H    0.193972   0.004567
    53  H    0.208409   0.006538
    54  H    0.154819   0.000550
    55  C   -0.254764  -0.004622
    56  H    0.201431   0.006369
    57  H    0.145094   0.000021
    58  H    0.197684   0.005604
    59  C   -0.259716  -0.004574
    60  H    0.194006   0.004554
    61  H    0.208465   0.006544
    62  H    0.154916   0.000557
 Sum of Mulliken charges =   3.00000   1.00000

 Dipole moment (field-independent basis, Debye):
    X=              0.0084    Y=              0.0001    Z=             -0.0001  Tot=              0.0084
 Quadrupole moment (field-independent basis, Debye-Ang):
   XX=            421.5406   YY=           -118.7217   ZZ=           -130.0337
   XY=              0.0020   XZ=             -0.0003   YZ=             -0.0048

 Normal termination of Gaussian 16 at Tue Jan 26 04:09:17 2021.
