 Gaussian 16, Revision A.03,
 Gaussian 16:  EM64L-G16RevA.03 25-Dec-2016

 ----------------------------------------------------------------------
 #P LC-wHPBE/TZVP iop(3/107=0221900000, 3/108=0221900000) scf=(conver=6
 ,fermi,ndamp=35,noincfock,novaracc,vshift=500,xqc)
 ----------------------------------------------------------------------

 ----------
 H32 C26 N4
 ----------
 Symbolic Z-matrix:
 Charge =  2 Multiplicity = 1

                         Standard orientation:
 ---------------------------------------------------------------------
 Center     Atomic      Atomic             Coordinates (Angstroms)
 Number     Number       Type             X           Y           Z
 ---------------------------------------------------------------------
      1          6           0        2.823961   -0.444264    1.111805
      2          6           0        3.524911   -0.000100    0.000001
      3          6           0        1.447297   -0.438089    1.110761
      4          6           0        2.823968    0.444049   -1.111840
      5          6           0        0.740218   -0.000107   -0.000031
      6          6           0        1.447325    0.437860   -1.110830
      7          1           0        0.914462   -0.797765    1.980986
      8          1           0        3.355363    0.783593   -1.991035
      9          1           0        0.914491    0.797490   -1.981076
     10          6           0       -0.740229   -0.000109   -0.000016
     11          6           0       -1.447379   -0.437502   -1.110991
     12          6           0       -1.447259    0.437322    1.111037
     13          6           0       -2.824033   -0.443666   -1.111944
     14          6           0       -2.823909    0.443539    1.112143
     15          6           0       -3.524910   -0.000034    0.000126
     16          1           0       -0.914614   -0.796709   -1.981454
     17          1           0       -0.914365    0.796519    1.981427
     18          1           0       -3.355477   -0.782802   -1.991269
     19          1           0       -3.355249    0.782652    1.991539
     20          1           0        3.355316   -0.783824    1.991014
     21          6           0       -4.975135   -0.000032    0.000145
     22          6           0       -6.146520    0.565054    0.408043
     23          6           0       -6.146453   -0.565050   -0.408017
     24          7           0       -6.780980    1.491697    1.066857
     25          7           0       -6.780843   -1.491604   -1.067037
     26          6           0       -6.057956    2.591048    1.684578
     27          1           0       -6.154708    2.545100    2.768364
     28          1           0       -5.008879    2.544629    1.410837
     29          1           0       -6.464629    3.537319    1.332266
     30          6           0       -8.228734    1.518275    1.186143
     31          1           0       -8.494477    1.775383    2.209103
     32          1           0       -8.659441    2.259109    0.513350
     33          1           0       -8.642938    0.539771    0.968827
     34          6           0       -6.057730   -2.591089   -1.684422
     35          1           0       -6.153192   -2.544651   -2.768303
     36          1           0       -5.008941   -2.545387   -1.409434
     37          1           0       -6.465326   -3.537274   -1.332961
     38          6           0       -8.228631   -1.518112   -1.186291
     39          1           0       -8.494234   -1.779605   -2.208151
     40          1           0       -8.659838   -2.255827   -0.510389
     41          1           0       -8.642467   -0.538433   -0.973542
     42          6           0        4.975109   -0.000078    0.000026
     43          6           0        6.146534   -0.565080    0.407916
     44          6           0        6.146403    0.565147   -0.407945
     45          7           0        6.781069   -1.491701    1.066705
     46          7           0        6.780732    1.491927   -1.066700
     47          6           0        6.058202   -2.591312    1.684129
     48          1           0        6.154554   -2.545406    2.767953
     49          1           0        5.009205   -2.545245    1.410016
     50          1           0        6.465319   -3.537423    1.331906
     51          6           0        8.228858   -1.518145    1.185797
     52          1           0        8.494704   -1.776946    2.208295
     53          1           0        8.659724   -2.257735    0.511728
     54          1           0        8.642813   -0.539154    0.970202
     55          6           0        6.057561    2.591370   -1.684106
     56          1           0        6.153074    2.544964   -2.767982
     57          1           0        5.008776    2.545628   -1.409122
     58          1           0        6.465122    3.537559   -1.332610
     59          6           0        8.228499    1.518584   -1.185941
     60          1           0        8.494145    1.779106   -2.208049
     61          1           0        8.659520    2.257040   -0.510729
     62          1           0        8.642516    0.539209   -0.972160
 ---------------------------------------------------------------------

 SCF Done:  E(RLC-wHPBE) =  -1227.71510458     A.U. after   14 cycles

 The electronic state is 1-A.
 Alpha  occ. eigenvalues --  -14.36065 -14.36065 -14.36064 -14.36064 -10.28810
 Alpha  occ. eigenvalues --  -10.28810 -10.28773 -10.28772 -10.24948 -10.24948
 Alpha  occ. eigenvalues --  -10.22274 -10.22274 -10.22273 -10.22273 -10.22185
 Alpha  occ. eigenvalues --  -10.22185 -10.22185 -10.22185 -10.21891 -10.21891
 Alpha  occ. eigenvalues --  -10.20498 -10.20485 -10.19796 -10.19796 -10.19794
 Alpha  occ. eigenvalues --  -10.19794 -10.19110 -10.19109 -10.19108 -10.19107
 Alpha  occ. eigenvalues --   -1.24601  -1.24601  -1.21766  -1.21766  -1.16607
 Alpha  occ. eigenvalues --   -1.16603  -1.11708  -1.10035  -1.03888  -0.99717
 Alpha  occ. eigenvalues --   -0.99453  -0.99076  -0.98345  -0.98132  -0.97972
 Alpha  occ. eigenvalues --   -0.97956  -0.96804  -0.96803  -0.95759  -0.95537
 Alpha  occ. eigenvalues --   -0.90779  -0.87329  -0.85518  -0.84894  -0.81175
 Alpha  occ. eigenvalues --   -0.80851  -0.80670  -0.80561  -0.80166  -0.79914
 Alpha  occ. eigenvalues --   -0.76905  -0.75794  -0.75723  -0.75624  -0.74837
 Alpha  occ. eigenvalues --   -0.74591  -0.74106  -0.73310  -0.73306  -0.72873
 Alpha  occ. eigenvalues --   -0.70797  -0.69405  -0.69082  -0.68175  -0.68124
 Alpha  occ. eigenvalues --   -0.67646  -0.67428  -0.67296  -0.67244  -0.67176
 Alpha  occ. eigenvalues --   -0.66916  -0.66026  -0.65796  -0.65772  -0.65618
 Alpha  occ. eigenvalues --   -0.65615  -0.65129  -0.64720  -0.64699  -0.64553
 Alpha  occ. eigenvalues --   -0.64006  -0.63390  -0.63347  -0.62474  -0.62130
 Alpha  occ. eigenvalues --   -0.60660  -0.59970  -0.58815  -0.58366  -0.55800
 Alpha  occ. eigenvalues --   -0.55790  -0.54908  -0.51669  -0.51576  -0.51488
 Alpha  occ. eigenvalues --   -0.48081  -0.46382
 Alpha virt. eigenvalues --   -0.18912  -0.15529  -0.13384  -0.13345  -0.09692
 Alpha virt. eigenvalues --   -0.09691  -0.09318  -0.08707  -0.08692  -0.07256
 Alpha virt. eigenvalues --   -0.05585  -0.05501  -0.04579  -0.04174  -0.03749

 Mulliken charges:
               1
     1  C   -0.094469
     2  C    0.142137
     3  C   -0.152381
     4  C   -0.094473
     5  C    0.014382
     6  C   -0.152355
     7  H    0.162688
     8  H    0.158582
     9  H    0.162674
    10  C    0.014406
    11  C   -0.152348
    12  C   -0.152389
    13  C   -0.094486
    14  C   -0.094457
    15  C    0.142137
    16  H    0.162671
    17  H    0.162688
    18  H    0.158584
    19  H    0.158561
    20  H    0.158560
    21  C   -0.470169
    22  C    0.072232
    23  C    0.072164
    24  N    0.015132
    25  N    0.015186
    26  C   -0.254103
    27  H    0.177439
    28  H    0.151508
    29  H    0.173117
    30  C   -0.255849
    31  H    0.172795
    32  H    0.184386
    33  H    0.145873
    34  C   -0.254441
    35  H    0.177523
    36  H    0.151555
    37  H    0.173214
    38  C   -0.256416
    39  H    0.172890
    40  H    0.184508
    41  H    0.146097
    42  C   -0.470188
    43  C    0.072248
    44  C    0.072193
    45  N    0.015174
    46  N    0.015181
    47  C   -0.254203
    48  H    0.177470
    49  H    0.151512
    50  H    0.173147
    51  C   -0.256066
    52  H    0.172830
    53  H    0.184429
    54  H    0.145956
    55  C   -0.254387
    56  H    0.177516
    57  H    0.151549
    58  H    0.173193
    59  C   -0.256302
    60  H    0.172872
    61  H    0.184482
    62  H    0.146040
 Sum of Mulliken charges =   2.00000

 Dipole moment (field-independent basis, Debye):
    X=             -0.0002    Y=              0.0001    Z=             -0.0004  Tot=              0.0005
 Quadrupole moment (field-independent basis, Debye-Ang):
   XX=            267.0566   YY=           -135.4643   ZZ=           -143.7360
   XY=              0.0040   XZ=              0.0008   YZ=             -0.0014

 Normal termination of Gaussian 16 at Tue Jan 26 03:26:30 2021.
