 Gaussian 16, Revision A.03,
 Gaussian 16:  EM64L-G16RevA.03 25-Dec-2016

 ----------------------------------------------------------------------
 #P LC-wHPBE/TZVP iop(3/107=0199600000, 3/108=0199600000) scf=(conver=6
 ,fermi,ndamp=35,noincfock,novaracc,vshift=500,xqc)
 ----------------------------------------------------------------------

 ----------
 H32 C26 N4
 ----------
 Symbolic Z-matrix:
 Charge =  3 Multiplicity = 2

                         Standard orientation:
 ---------------------------------------------------------------------
 Center     Atomic      Atomic             Coordinates (Angstroms)
 Number     Number       Type             X           Y           Z
 ---------------------------------------------------------------------
      1          6           0        2.823961   -0.444264    1.111805
      2          6           0        3.524911   -0.000100    0.000001
      3          6           0        1.447297   -0.438089    1.110761
      4          6           0        2.823968    0.444049   -1.111840
      5          6           0        0.740218   -0.000107   -0.000031
      6          6           0        1.447325    0.437860   -1.110830
      7          1           0        0.914462   -0.797765    1.980986
      8          1           0        3.355363    0.783593   -1.991035
      9          1           0        0.914491    0.797490   -1.981076
     10          6           0       -0.740229   -0.000109   -0.000016
     11          6           0       -1.447379   -0.437502   -1.110991
     12          6           0       -1.447259    0.437322    1.111037
     13          6           0       -2.824033   -0.443666   -1.111944
     14          6           0       -2.823909    0.443539    1.112143
     15          6           0       -3.524910   -0.000034    0.000126
     16          1           0       -0.914614   -0.796709   -1.981454
     17          1           0       -0.914365    0.796519    1.981427
     18          1           0       -3.355477   -0.782802   -1.991269
     19          1           0       -3.355249    0.782652    1.991539
     20          1           0        3.355316   -0.783824    1.991014
     21          6           0       -4.975135   -0.000032    0.000145
     22          6           0       -6.146520    0.565054    0.408043
     23          6           0       -6.146453   -0.565050   -0.408017
     24          7           0       -6.780980    1.491697    1.066857
     25          7           0       -6.780843   -1.491604   -1.067037
     26          6           0       -6.057956    2.591048    1.684578
     27          1           0       -6.154708    2.545100    2.768364
     28          1           0       -5.008879    2.544629    1.410837
     29          1           0       -6.464629    3.537319    1.332266
     30          6           0       -8.228734    1.518275    1.186143
     31          1           0       -8.494477    1.775383    2.209103
     32          1           0       -8.659441    2.259109    0.513350
     33          1           0       -8.642938    0.539771    0.968827
     34          6           0       -6.057730   -2.591089   -1.684422
     35          1           0       -6.153192   -2.544651   -2.768303
     36          1           0       -5.008941   -2.545387   -1.409434
     37          1           0       -6.465326   -3.537274   -1.332961
     38          6           0       -8.228631   -1.518112   -1.186291
     39          1           0       -8.494234   -1.779605   -2.208151
     40          1           0       -8.659838   -2.255827   -0.510389
     41          1           0       -8.642467   -0.538433   -0.973542
     42          6           0        4.975109   -0.000078    0.000026
     43          6           0        6.146534   -0.565080    0.407916
     44          6           0        6.146403    0.565147   -0.407945
     45          7           0        6.781069   -1.491701    1.066705
     46          7           0        6.780732    1.491927   -1.066700
     47          6           0        6.058202   -2.591312    1.684129
     48          1           0        6.154554   -2.545406    2.767953
     49          1           0        5.009205   -2.545245    1.410016
     50          1           0        6.465319   -3.537423    1.331906
     51          6           0        8.228858   -1.518145    1.185797
     52          1           0        8.494704   -1.776946    2.208295
     53          1           0        8.659724   -2.257735    0.511728
     54          1           0        8.642813   -0.539154    0.970202
     55          6           0        6.057561    2.591370   -1.684106
     56          1           0        6.153074    2.544964   -2.767982
     57          1           0        5.008776    2.545628   -1.409122
     58          1           0        6.465122    3.537559   -1.332610
     59          6           0        8.228499    1.518584   -1.185941
     60          1           0        8.494145    1.779106   -2.208049
     61          1           0        8.659520    2.257040   -0.510729
     62          1           0        8.642516    0.539209   -0.972160
 ---------------------------------------------------------------------

 SCF Done:  E(ULC-wHPBE) =  -1227.21494263     A.U. after   31 cycles

 The electronic state is 2-A.
 Alpha  occ. eigenvalues --  -14.46428 -14.46427 -14.46425 -14.46423 -10.38466
 Alpha  occ. eigenvalues --  -10.38463 -10.38429 -10.38425 -10.34938 -10.34934
 Alpha  occ. eigenvalues --  -10.33785 -10.33782 -10.32657 -10.32643 -10.30616
 Alpha  occ. eigenvalues --  -10.30615 -10.30614 -10.30613 -10.30428 -10.30428
 Alpha  occ. eigenvalues --  -10.30425 -10.30425 -10.30424 -10.30422 -10.30422
 Alpha  occ. eigenvalues --  -10.30421 -10.30056 -10.30055 -10.30053 -10.30052
 Alpha  occ. eigenvalues --   -1.34247  -1.34244  -1.31253  -1.31249  -1.26442
 Alpha  occ. eigenvalues --   -1.26430  -1.23094  -1.21256  -1.15274  -1.10633
 Alpha  occ. eigenvalues --   -1.10593  -1.09939  -1.06836  -1.06721  -1.06400
 Alpha  occ. eigenvalues --   -1.06393  -1.05681  -1.05677  -1.04707  -1.04520
 Alpha  occ. eigenvalues --   -1.01640  -0.98495  -0.96490  -0.96023  -0.91735
 Alpha  occ. eigenvalues --   -0.91352  -0.89434  -0.89329  -0.89261  -0.88937
 Alpha  occ. eigenvalues --   -0.87050  -0.85526  -0.85206  -0.84859  -0.84698
 Alpha  occ. eigenvalues --   -0.84082  -0.83879  -0.83012  -0.82260  -0.82256
 Alpha  occ. eigenvalues --   -0.81810  -0.80277  -0.79881  -0.78543  -0.78295
 Alpha  occ. eigenvalues --   -0.77910  -0.77707  -0.77070  -0.76413  -0.76343
 Alpha  occ. eigenvalues --   -0.75529  -0.75414  -0.75282  -0.74903  -0.74165
 Alpha  occ. eigenvalues --   -0.73956  -0.73822  -0.73819  -0.73750  -0.73247
 Alpha  occ. eigenvalues --   -0.73235  -0.72889  -0.72869  -0.71827  -0.71682
 Alpha  occ. eigenvalues --   -0.70947  -0.70873  -0.69845  -0.69612  -0.66711
 Alpha  occ. eigenvalues --   -0.65380  -0.65374  -0.63176  -0.63035  -0.62951
 Alpha  occ. eigenvalues --   -0.58698  -0.57627
 Alpha virt. eigenvalues --   -0.31349  -0.27709  -0.25900  -0.25883  -0.21481
 Alpha virt. eigenvalues --   -0.21018  -0.21013  -0.19672  -0.18716  -0.18708
 Alpha virt. eigenvalues --   -0.14997  -0.14915  -0.14641  -0.14133  -0.13362

  Beta  occ. eigenvalues --  -14.46212 -14.46211 -14.46209 -14.46207 -10.38482
  Beta  occ. eigenvalues --  -10.38478 -10.38445 -10.38441 -10.34932 -10.34927
  Beta  occ. eigenvalues --  -10.33606 -10.33603 -10.32530 -10.32515 -10.30625
  Beta  occ. eigenvalues --  -10.30624 -10.30623 -10.30622 -10.30433 -10.30432
  Beta  occ. eigenvalues --  -10.30430 -10.30429 -10.30362 -10.30360 -10.30360
  Beta  occ. eigenvalues --  -10.30359 -10.30061 -10.30060 -10.30058 -10.30057
  Beta  occ. eigenvalues --   -1.34025  -1.34022  -1.30948  -1.30945  -1.26166
  Beta  occ. eigenvalues --   -1.26153  -1.22810  -1.21001  -1.14913  -1.10542
  Beta  occ. eigenvalues --   -1.10200  -1.09865  -1.06784  -1.06656  -1.06348
  Beta  occ. eigenvalues --   -1.06342  -1.05633  -1.05629  -1.04645  -1.04437
  Beta  occ. eigenvalues --   -1.01563  -0.98328  -0.96343  -0.95827  -0.91642
  Beta  occ. eigenvalues --   -0.91257  -0.89309  -0.89199  -0.89150  -0.88815
  Beta  occ. eigenvalues --   -0.86962  -0.85300  -0.84880  -0.84771  -0.84504
  Beta  occ. eigenvalues --   -0.83998  -0.83761  -0.82874  -0.81863  -0.81859
  Beta  occ. eigenvalues --   -0.81592  -0.80146  -0.79782  -0.78507  -0.78065
  Beta  occ. eigenvalues --   -0.77569  -0.77522  -0.76979  -0.76326  -0.76233
  Beta  occ. eigenvalues --   -0.75490  -0.75373  -0.74843  -0.74598  -0.74027
  Beta  occ. eigenvalues --   -0.73797  -0.73713  -0.73709  -0.73608  -0.73215
  Beta  occ. eigenvalues --   -0.73206  -0.72805  -0.72414  -0.71789  -0.71653
  Beta  occ. eigenvalues --   -0.70843  -0.70801  -0.69784  -0.69491  -0.65355
  Beta  occ. eigenvalues --   -0.64530  -0.64527  -0.62888  -0.62832  -0.60496
  Beta  occ. eigenvalues --   -0.55030
  Beta virt. eigenvalues --   -0.45723  -0.30779  -0.26900  -0.25476  -0.25302
  Beta virt. eigenvalues --   -0.20879  -0.20538  -0.20535  -0.19014  -0.18661
  Beta virt. eigenvalues --   -0.18655  -0.14967  -0.14878  -0.14618  -0.14094

 Mulliken charges and spin densities:
               1          2
     1  C   -0.079022  -0.015237
     2  C    0.165948   0.130464
     3  C   -0.126060   0.043774
     4  C   -0.079026  -0.015233
     5  C    0.026908   0.088462
     6  C   -0.126032   0.043758
     7  H    0.188218  -0.002600
     8  H    0.184169   0.000256
     9  H    0.188204  -0.002599
    10  C    0.026947   0.088371
    11  C   -0.126031   0.043783
    12  C   -0.126071   0.043805
    13  C   -0.079043  -0.015254
    14  C   -0.079015  -0.015269
    15  C    0.165919   0.130423
    16  H    0.188192  -0.002600
    17  H    0.188208  -0.002601
    18  H    0.184168   0.000257
    19  H    0.184147   0.000258
    20  H    0.184147   0.000256
    21  C   -0.473532  -0.006179
    22  C    0.082646  -0.006898
    23  C    0.082596  -0.006883
    24  N    0.051697   0.108474
    25  N    0.051760   0.108496
    26  C   -0.256449  -0.004329
    27  H    0.201865   0.006591
    28  H    0.146723   0.000001
    29  H    0.198306   0.005796
    30  C   -0.261122  -0.004317
    31  H    0.194724   0.004715
    32  H    0.208903   0.006812
    33  H    0.155830   0.000552
    34  C   -0.256807  -0.004325
    35  H    0.201946   0.006595
    36  H    0.146780   0.000002
    37  H    0.198408   0.005789
    38  C   -0.261719  -0.004321
    39  H    0.194797   0.004677
    40  H    0.209034   0.006829
    41  H    0.156082   0.000572
    42  C   -0.473545  -0.006169
    43  C    0.082673  -0.006909
    44  C    0.082614  -0.006908
    45  N    0.051777   0.108598
    46  N    0.051783   0.108598
    47  C   -0.256557  -0.004332
    48  H    0.201908   0.006599
    49  H    0.146741   0.000001
    50  H    0.198350   0.005801
    51  C   -0.261352  -0.004323
    52  H    0.194764   0.004705
    53  H    0.208963   0.006827
    54  H    0.155926   0.000560
    55  C   -0.256754  -0.004330
    56  H    0.201952   0.006603
    57  H    0.146783   0.000002
    58  H    0.198395   0.005793
    59  C   -0.261601  -0.004324
    60  H    0.194798   0.004691
    61  H    0.209019   0.006832
    62  H    0.156022   0.000567
 Sum of Mulliken charges =   3.00000   1.00000

 Dipole moment (field-independent basis, Debye):
    X=              0.0069    Y=              0.0001    Z=             -0.0001  Tot=              0.0069
 Quadrupole moment (field-independent basis, Debye-Ang):
   XX=            424.2840   YY=           -118.4815   ZZ=           -130.0738
   XY=              0.0017   XZ=             -0.0004   YZ=             -0.0042

 Normal termination of Gaussian 16 at Tue Jan 26 08:13:21 2021.
