 Gaussian 16, Revision A.03,
 Gaussian 16:  EM64L-G16RevA.03 25-Dec-2016

 ----------------------------------------------------------------------
 #P LC-wHPBE/TZVP iop(3/107=0201400000, 3/108=0201400000) scf=(conver=6
 ,fermi,ndamp=35,noincfock,novaracc,vshift=500,xqc)
 ----------------------------------------------------------------------

 ----------
 H32 C26 N4
 ----------
 Symbolic Z-matrix:
 Charge =  3 Multiplicity = 2

                         Standard orientation:
 ---------------------------------------------------------------------
 Center     Atomic      Atomic             Coordinates (Angstroms)
 Number     Number       Type             X           Y           Z
 ---------------------------------------------------------------------
      1          6           0        2.823961   -0.444264    1.111805
      2          6           0        3.524911   -0.000100    0.000001
      3          6           0        1.447297   -0.438089    1.110761
      4          6           0        2.823968    0.444049   -1.111840
      5          6           0        0.740218   -0.000107   -0.000031
      6          6           0        1.447325    0.437860   -1.110830
      7          1           0        0.914462   -0.797765    1.980986
      8          1           0        3.355363    0.783593   -1.991035
      9          1           0        0.914491    0.797490   -1.981076
     10          6           0       -0.740229   -0.000109   -0.000016
     11          6           0       -1.447379   -0.437502   -1.110991
     12          6           0       -1.447259    0.437322    1.111037
     13          6           0       -2.824033   -0.443666   -1.111944
     14          6           0       -2.823909    0.443539    1.112143
     15          6           0       -3.524910   -0.000034    0.000126
     16          1           0       -0.914614   -0.796709   -1.981454
     17          1           0       -0.914365    0.796519    1.981427
     18          1           0       -3.355477   -0.782802   -1.991269
     19          1           0       -3.355249    0.782652    1.991539
     20          1           0        3.355316   -0.783824    1.991014
     21          6           0       -4.975135   -0.000032    0.000145
     22          6           0       -6.146520    0.565054    0.408043
     23          6           0       -6.146453   -0.565050   -0.408017
     24          7           0       -6.780980    1.491697    1.066857
     25          7           0       -6.780843   -1.491604   -1.067037
     26          6           0       -6.057956    2.591048    1.684578
     27          1           0       -6.154708    2.545100    2.768364
     28          1           0       -5.008879    2.544629    1.410837
     29          1           0       -6.464629    3.537319    1.332266
     30          6           0       -8.228734    1.518275    1.186143
     31          1           0       -8.494477    1.775383    2.209103
     32          1           0       -8.659441    2.259109    0.513350
     33          1           0       -8.642938    0.539771    0.968827
     34          6           0       -6.057730   -2.591089   -1.684422
     35          1           0       -6.153192   -2.544651   -2.768303
     36          1           0       -5.008941   -2.545387   -1.409434
     37          1           0       -6.465326   -3.537274   -1.332961
     38          6           0       -8.228631   -1.518112   -1.186291
     39          1           0       -8.494234   -1.779605   -2.208151
     40          1           0       -8.659838   -2.255827   -0.510389
     41          1           0       -8.642467   -0.538433   -0.973542
     42          6           0        4.975109   -0.000078    0.000026
     43          6           0        6.146534   -0.565080    0.407916
     44          6           0        6.146403    0.565147   -0.407945
     45          7           0        6.781069   -1.491701    1.066705
     46          7           0        6.780732    1.491927   -1.066700
     47          6           0        6.058202   -2.591312    1.684129
     48          1           0        6.154554   -2.545406    2.767953
     49          1           0        5.009205   -2.545245    1.410016
     50          1           0        6.465319   -3.537423    1.331906
     51          6           0        8.228858   -1.518145    1.185797
     52          1           0        8.494704   -1.776946    2.208295
     53          1           0        8.659724   -2.257735    0.511728
     54          1           0        8.642813   -0.539154    0.970202
     55          6           0        6.057561    2.591370   -1.684106
     56          1           0        6.153074    2.544964   -2.767982
     57          1           0        5.008776    2.545628   -1.409122
     58          1           0        6.465122    3.537559   -1.332610
     59          6           0        8.228499    1.518584   -1.185941
     60          1           0        8.494145    1.779106   -2.208049
     61          1           0        8.659520    2.257040   -0.510729
     62          1           0        8.642516    0.539209   -0.972160
 ---------------------------------------------------------------------

 SCF Done:  E(ULC-wHPBE) =  -1227.21809785     A.U. after   31 cycles

 The electronic state is 2-A.
 Alpha  occ. eigenvalues --  -14.46522 -14.46520 -14.46517 -14.46515 -10.38574
 Alpha  occ. eigenvalues --  -10.38570 -10.38537 -10.38533 -10.35039 -10.35035
 Alpha  occ. eigenvalues --  -10.33902 -10.33900 -10.32776 -10.32762 -10.30728
 Alpha  occ. eigenvalues --  -10.30726 -10.30725 -10.30724 -10.30539 -10.30538
 Alpha  occ. eigenvalues --  -10.30538 -10.30536 -10.30526 -10.30526 -10.30523
 Alpha  occ. eigenvalues --  -10.30523 -10.30152 -10.30151 -10.30149 -10.30148
 Alpha  occ. eigenvalues --   -1.34353  -1.34349  -1.31353  -1.31350  -1.26545
 Alpha  occ. eigenvalues --   -1.26532  -1.23216  -1.21376  -1.15391  -1.10748
 Alpha  occ. eigenvalues --   -1.10707  -1.10052  -1.06934  -1.06819  -1.06495
 Alpha  occ. eigenvalues --   -1.06488  -1.05776  -1.05772  -1.04800  -1.04612
 Alpha  occ. eigenvalues --   -1.01744  -0.98602  -0.96591  -0.96127  -0.91835
 Alpha  occ. eigenvalues --   -0.91450  -0.89518  -0.89412  -0.89347  -0.89019
 Alpha  occ. eigenvalues --   -0.87140  -0.85616  -0.85294  -0.84940  -0.84785
 Alpha  occ. eigenvalues --   -0.84165  -0.83960  -0.83092  -0.82341  -0.82337
 Alpha  occ. eigenvalues --   -0.81898  -0.80368  -0.79972  -0.78632  -0.78384
 Alpha  occ. eigenvalues --   -0.77992  -0.77791  -0.77152  -0.76488  -0.76420
 Alpha  occ. eigenvalues --   -0.75603  -0.75488  -0.75367  -0.74982  -0.74238
 Alpha  occ. eigenvalues --   -0.74029  -0.73894  -0.73891  -0.73822  -0.73317
 Alpha  occ. eigenvalues --   -0.73306  -0.72965  -0.72947  -0.71899  -0.71751
 Alpha  occ. eigenvalues --   -0.71024  -0.70944  -0.69920  -0.69692  -0.66783
 Alpha  occ. eigenvalues --   -0.65444  -0.65438  -0.63240  -0.63102  -0.63017
 Alpha  occ. eigenvalues --   -0.58746  -0.57677
 Alpha virt. eigenvalues --   -0.31322  -0.27673  -0.25866  -0.25850  -0.21432
 Alpha virt. eigenvalues --   -0.20966  -0.20961  -0.19626  -0.18671  -0.18664
 Alpha virt. eigenvalues --   -0.14956  -0.14877  -0.14599  -0.14091  -0.13314

  Beta  occ. eigenvalues --  -14.46306 -14.46304 -14.46302 -14.46300 -10.38589
  Beta  occ. eigenvalues --  -10.38586 -10.38552 -10.38549 -10.35033 -10.35029
  Beta  occ. eigenvalues --  -10.33722 -10.33720 -10.32649 -10.32634 -10.30737
  Beta  occ. eigenvalues --  -10.30736 -10.30735 -10.30734 -10.30531 -10.30530
  Beta  occ. eigenvalues --  -10.30528 -10.30527 -10.30477 -10.30476 -10.30475
  Beta  occ. eigenvalues --  -10.30474 -10.30157 -10.30156 -10.30154 -10.30153
  Beta  occ. eigenvalues --   -1.34131  -1.34128  -1.31049  -1.31046  -1.26268
  Beta  occ. eigenvalues --   -1.26255  -1.22931  -1.21120  -1.15028  -1.10657
  Beta  occ. eigenvalues --   -1.10311  -1.09979  -1.06882  -1.06753  -1.06444
  Beta  occ. eigenvalues --   -1.06437  -1.05728  -1.05724  -1.04739  -1.04530
  Beta  occ. eigenvalues --   -1.01667  -0.98434  -0.96443  -0.95931  -0.91742
  Beta  occ. eigenvalues --   -0.91356  -0.89393  -0.89282  -0.89236  -0.88898
  Beta  occ. eigenvalues --   -0.87052  -0.85391  -0.84969  -0.84852  -0.84590
  Beta  occ. eigenvalues --   -0.84082  -0.83842  -0.82954  -0.81943  -0.81940
  Beta  occ. eigenvalues --   -0.81679  -0.80236  -0.79871  -0.78596  -0.78153
  Beta  occ. eigenvalues --   -0.77648  -0.77604  -0.77061  -0.76401  -0.76310
  Beta  occ. eigenvalues --   -0.75564  -0.75447  -0.74925  -0.74672  -0.74100
  Beta  occ. eigenvalues --   -0.73869  -0.73785  -0.73781  -0.73680  -0.73286
  Beta  occ. eigenvalues --   -0.73277  -0.72881  -0.72488  -0.71860  -0.71723
  Beta  occ. eigenvalues --   -0.70921  -0.70871  -0.69859  -0.69570  -0.65410
  Beta  occ. eigenvalues --   -0.64590  -0.64587  -0.62956  -0.62900  -0.60534
  Beta  occ. eigenvalues --   -0.55070
  Beta virt. eigenvalues --   -0.45726  -0.30753  -0.26860  -0.25438  -0.25262
  Beta virt. eigenvalues --   -0.20829  -0.20483  -0.20480  -0.18963  -0.18616
  Beta virt. eigenvalues --   -0.18611  -0.14927  -0.14840  -0.14576  -0.14052

 Mulliken charges and spin densities:
               1          2
     1  C   -0.079081  -0.015679
     2  C    0.165794   0.131288
     3  C   -0.126145   0.044155
     4  C   -0.079084  -0.015674
     5  C    0.026850   0.088686
     6  C   -0.126118   0.044139
     7  H    0.188468  -0.002619
     8  H    0.184427   0.000272
     9  H    0.188454  -0.002619
    10  C    0.026889   0.088592
    11  C   -0.126116   0.044164
    12  C   -0.126157   0.044186
    13  C   -0.079102  -0.015696
    14  C   -0.079074  -0.015710
    15  C    0.165765   0.131246
    16  H    0.188442  -0.002620
    17  H    0.188458  -0.002621
    18  H    0.184426   0.000273
    19  H    0.184406   0.000274
    20  H    0.184406   0.000272
    21  C   -0.473348  -0.006846
    22  C    0.082590  -0.006793
    23  C    0.082541  -0.006777
    24  N    0.051518   0.108353
    25  N    0.051582   0.108375
    26  C   -0.256261  -0.004353
    27  H    0.201814   0.006572
    28  H    0.146579   0.000002
    29  H    0.198241   0.005781
    30  C   -0.260946  -0.004337
    31  H    0.194653   0.004704
    32  H    0.208849   0.006789
    33  H    0.155734   0.000551
    34  C   -0.256620  -0.004349
    35  H    0.201894   0.006577
    36  H    0.146636   0.000003
    37  H    0.198342   0.005774
    38  C   -0.261543  -0.004342
    39  H    0.194726   0.004666
    40  H    0.208979   0.006806
    41  H    0.155987   0.000571
    42  C   -0.473358  -0.006836
    43  C    0.082619  -0.006804
    44  C    0.082561  -0.006802
    45  N    0.051594   0.108479
    46  N    0.051601   0.108479
    47  C   -0.256369  -0.004356
    48  H    0.201857   0.006581
    49  H    0.146597   0.000003
    50  H    0.198285   0.005786
    51  C   -0.261175  -0.004344
    52  H    0.194693   0.004694
    53  H    0.208908   0.006803
    54  H    0.155831   0.000559
    55  C   -0.256566  -0.004354
    56  H    0.201901   0.006585
    57  H    0.146639   0.000004
    58  H    0.198330   0.005778
    59  C   -0.261424  -0.004345
    60  H    0.194727   0.004681
    61  H    0.208965   0.006809
    62  H    0.155927   0.000566
 Sum of Mulliken charges =   3.00000   1.00000

 Dipole moment (field-independent basis, Debye):
    X=              0.0070    Y=              0.0001    Z=             -0.0001  Tot=              0.0070
 Quadrupole moment (field-independent basis, Debye-Ang):
   XX=            424.0675   YY=           -118.5006   ZZ=           -130.0707
   XY=              0.0017   XZ=             -0.0003   YZ=             -0.0043

 Normal termination of Gaussian 16 at Tue Jan 26 10:05:52 2021.
