 Gaussian 16, Revision A.03,
 Gaussian 16:  EM64L-G16RevA.03 25-Dec-2016

 ----------------------------------------------------------------------
 #P LC-wHPBE/TZVP iop(3/107=0220900000, 3/108=0220900000) scf=(conver=6
 ,fermi,ndamp=35,noincfock,novaracc,vshift=500,xqc)
 ----------------------------------------------------------------------

 ----------
 H32 C26 N4
 ----------
 Symbolic Z-matrix:
 Charge =  3 Multiplicity = 2

                         Standard orientation:
 ---------------------------------------------------------------------
 Center     Atomic      Atomic             Coordinates (Angstroms)
 Number     Number       Type             X           Y           Z
 ---------------------------------------------------------------------
      1          6           0        2.823961   -0.444264    1.111805
      2          6           0        3.524911   -0.000100    0.000001
      3          6           0        1.447297   -0.438089    1.110761
      4          6           0        2.823968    0.444049   -1.111840
      5          6           0        0.740218   -0.000107   -0.000031
      6          6           0        1.447325    0.437860   -1.110830
      7          1           0        0.914462   -0.797765    1.980986
      8          1           0        3.355363    0.783593   -1.991035
      9          1           0        0.914491    0.797490   -1.981076
     10          6           0       -0.740229   -0.000109   -0.000016
     11          6           0       -1.447379   -0.437502   -1.110991
     12          6           0       -1.447259    0.437322    1.111037
     13          6           0       -2.824033   -0.443666   -1.111944
     14          6           0       -2.823909    0.443539    1.112143
     15          6           0       -3.524910   -0.000034    0.000126
     16          1           0       -0.914614   -0.796709   -1.981454
     17          1           0       -0.914365    0.796519    1.981427
     18          1           0       -3.355477   -0.782802   -1.991269
     19          1           0       -3.355249    0.782652    1.991539
     20          1           0        3.355316   -0.783824    1.991014
     21          6           0       -4.975135   -0.000032    0.000145
     22          6           0       -6.146520    0.565054    0.408043
     23          6           0       -6.146453   -0.565050   -0.408017
     24          7           0       -6.780980    1.491697    1.066857
     25          7           0       -6.780843   -1.491604   -1.067037
     26          6           0       -6.057956    2.591048    1.684578
     27          1           0       -6.154708    2.545100    2.768364
     28          1           0       -5.008879    2.544629    1.410837
     29          1           0       -6.464629    3.537319    1.332266
     30          6           0       -8.228734    1.518275    1.186143
     31          1           0       -8.494477    1.775383    2.209103
     32          1           0       -8.659441    2.259109    0.513350
     33          1           0       -8.642938    0.539771    0.968827
     34          6           0       -6.057730   -2.591089   -1.684422
     35          1           0       -6.153192   -2.544651   -2.768303
     36          1           0       -5.008941   -2.545387   -1.409434
     37          1           0       -6.465326   -3.537274   -1.332961
     38          6           0       -8.228631   -1.518112   -1.186291
     39          1           0       -8.494234   -1.779605   -2.208151
     40          1           0       -8.659838   -2.255827   -0.510389
     41          1           0       -8.642467   -0.538433   -0.973542
     42          6           0        4.975109   -0.000078    0.000026
     43          6           0        6.146534   -0.565080    0.407916
     44          6           0        6.146403    0.565147   -0.407945
     45          7           0        6.781069   -1.491701    1.066705
     46          7           0        6.780732    1.491927   -1.066700
     47          6           0        6.058202   -2.591312    1.684129
     48          1           0        6.154554   -2.545406    2.767953
     49          1           0        5.009205   -2.545245    1.410016
     50          1           0        6.465319   -3.537423    1.331906
     51          6           0        8.228858   -1.518145    1.185797
     52          1           0        8.494704   -1.776946    2.208295
     53          1           0        8.659724   -2.257735    0.511728
     54          1           0        8.642813   -0.539154    0.970202
     55          6           0        6.057561    2.591370   -1.684106
     56          1           0        6.153074    2.544964   -2.767982
     57          1           0        5.008776    2.545628   -1.409122
     58          1           0        6.465122    3.537559   -1.332610
     59          6           0        8.228499    1.518584   -1.185941
     60          1           0        8.494145    1.779106   -2.208049
     61          1           0        8.659520    2.257040   -0.510729
     62          1           0        8.642516    0.539209   -0.972160
 ---------------------------------------------------------------------

 SCF Done:  E(ULC-wHPBE) =  -1227.25192367     A.U. after   32 cycles

 The electronic state is 2-A.
 Alpha  occ. eigenvalues --  -14.47526 -14.47525 -14.47521 -14.47520 -10.39743
 Alpha  occ. eigenvalues --  -10.39739 -10.39706 -10.39701 -10.36127 -10.36122
 Alpha  occ. eigenvalues --  -10.35175 -10.35172 -10.34073 -10.34059 -10.31937
 Alpha  occ. eigenvalues --  -10.31935 -10.31934 -10.31932 -10.31793 -10.31792
 Alpha  occ. eigenvalues --  -10.31791 -10.31790 -10.31584 -10.31584 -10.31581
 Alpha  occ. eigenvalues --  -10.31580 -10.31193 -10.31192 -10.31190 -10.31189
 Alpha  occ. eigenvalues --   -1.35497  -1.35492  -1.32441  -1.32437  -1.27647
 Alpha  occ. eigenvalues --   -1.27631  -1.24539  -1.22673  -1.16660  -1.11986
 Alpha  occ. eigenvalues --   -1.11935  -1.11278  -1.07982  -1.07866  -1.07522
 Alpha  occ. eigenvalues --   -1.07515  -1.06788  -1.06783  -1.05798  -1.05598
 Alpha  occ. eigenvalues --   -1.02855  -0.99749  -0.97671  -0.97241  -0.92898
 Alpha  occ. eigenvalues --   -0.92501  -0.90410  -0.90299  -0.90257  -0.89896
 Alpha  occ. eigenvalues --   -0.88094  -0.86575  -0.86224  -0.85796  -0.85709
 Alpha  occ. eigenvalues --   -0.85044  -0.84816  -0.83937  -0.83201  -0.83196
 Alpha  occ. eigenvalues --   -0.82827  -0.81324  -0.80928  -0.79580  -0.79328
 Alpha  occ. eigenvalues --   -0.78860  -0.78689  -0.78020  -0.77285  -0.77233
 Alpha  occ. eigenvalues --   -0.76383  -0.76272  -0.76256  -0.75818  -0.75006
 Alpha  occ. eigenvalues --   -0.74798  -0.74657  -0.74653  -0.74581  -0.74059
 Alpha  occ. eigenvalues --   -0.74051  -0.73771  -0.73762  -0.72664  -0.72484
 Alpha  occ. eigenvalues --   -0.71841  -0.71691  -0.70710  -0.70531  -0.67536
 Alpha  occ. eigenvalues --   -0.66112  -0.66106  -0.63913  -0.63791  -0.63698
 Alpha  occ. eigenvalues --   -0.59244  -0.58191
 Alpha virt. eigenvalues --   -0.31061  -0.27307  -0.25531  -0.25518  -0.20940
 Alpha virt. eigenvalues --   -0.20427  -0.20421  -0.19151  -0.18220  -0.18217
 Alpha virt. eigenvalues --   -0.14545  -0.14494  -0.14172  -0.13667  -0.12842

  Beta  occ. eigenvalues --  -14.47312 -14.47311 -14.47308 -14.47307 -10.39758
  Beta  occ. eigenvalues --  -10.39754 -10.39721 -10.39717 -10.36130 -10.36125
  Beta  occ. eigenvalues --  -10.34983 -10.34980 -10.33942 -10.33927 -10.31951
  Beta  occ. eigenvalues --  -10.31950 -10.31948 -10.31947 -10.31726 -10.31724
  Beta  occ. eigenvalues --  -10.31724 -10.31722 -10.31589 -10.31589 -10.31586
  Beta  occ. eigenvalues --  -10.31585 -10.31198 -10.31198 -10.31195 -10.31194
  Beta  occ. eigenvalues --   -1.35280  -1.35275  -1.32141  -1.32137  -1.27369
  Beta  occ. eigenvalues --   -1.27353  -1.24239  -1.22402  -1.16274  -1.11895
  Beta  occ. eigenvalues --   -1.11500  -1.11205  -1.07932  -1.07800  -1.07472
  Beta  occ. eigenvalues --   -1.07465  -1.06742  -1.06738  -1.05741  -1.05518
  Beta  occ. eigenvalues --   -1.02778  -0.99575  -0.97519  -0.97034  -0.92802
  Beta  occ. eigenvalues --   -0.92405  -0.90284  -0.90167  -0.90146  -0.89773
  Beta  occ. eigenvalues --   -0.88005  -0.86357  -0.85903  -0.85707  -0.85507
  Beta  occ. eigenvalues --   -0.84961  -0.84692  -0.83798  -0.82794  -0.82790
  Beta  occ. eigenvalues --   -0.82593  -0.81186  -0.80824  -0.79542  -0.79088
  Beta  occ. eigenvalues --   -0.78480  -0.78475  -0.77925  -0.77199  -0.77114
  Beta  occ. eigenvalues --   -0.76343  -0.76231  -0.75786  -0.75449  -0.74863
  Beta  occ. eigenvalues --   -0.74630  -0.74544  -0.74540  -0.74432  -0.74029
  Beta  occ. eigenvalues --   -0.74022  -0.73682  -0.73263  -0.72620  -0.72455
  Beta  occ. eigenvalues --   -0.71738  -0.71615  -0.70648  -0.70405  -0.65974
  Beta  occ. eigenvalues --   -0.65227  -0.65224  -0.63656  -0.63600  -0.60922
  Beta  occ. eigenvalues --   -0.55497
  Beta virt. eigenvalues --   -0.45749  -0.30492  -0.26459  -0.25056  -0.24862
  Beta virt. eigenvalues --   -0.20312  -0.19920  -0.19915  -0.18437  -0.18168
  Beta virt. eigenvalues --   -0.18165  -0.14517  -0.14456  -0.14152  -0.13626

 Mulliken charges and spin densities:
               1          2
     1  C   -0.079958  -0.020806
     2  C    0.164580   0.140550
     3  C   -0.127049   0.048583
     4  C   -0.079961  -0.020801
     5  C    0.026078   0.090996
     6  C   -0.127021   0.048566
     7  H    0.191361  -0.002849
     8  H    0.187421   0.000463
     9  H    0.191347  -0.002848
    10  C    0.026119   0.090872
    11  C   -0.127020   0.048602
    12  C   -0.127060   0.048625
    13  C   -0.079980  -0.020832
    14  C   -0.079954  -0.020847
    15  C    0.164546   0.140500
    16  H    0.191333  -0.002850
    17  H    0.191349  -0.002850
    18  H    0.187420   0.000465
    19  H    0.187399   0.000466
    20  H    0.187400   0.000463
    21  C   -0.471050  -0.014109
    22  C    0.082048  -0.005549
    23  C    0.082004  -0.005533
    24  N    0.049110   0.106904
    25  N    0.049182   0.106925
    26  C   -0.254530  -0.004607
    27  H    0.201359   0.006365
    28  H    0.145102   0.000019
    29  H    0.197622   0.005614
    30  C   -0.259304  -0.004555
    31  H    0.193961   0.004581
    32  H    0.208365   0.006535
    33  H    0.154766   0.000543
    34  C   -0.254891  -0.004604
    35  H    0.201439   0.006370
    36  H    0.145160   0.000020
    37  H    0.197721   0.005607
    38  C   -0.259906  -0.004560
    39  H    0.194033   0.004545
    40  H    0.208496   0.006552
    41  H    0.155022   0.000562
    42  C   -0.471054  -0.014097
    43  C    0.082080  -0.005564
    44  C    0.082024  -0.005563
    45  N    0.049189   0.107052
    46  N    0.049202   0.107052
    47  C   -0.254639  -0.004612
    48  H    0.201405   0.006375
    49  H    0.145122   0.000020
    50  H    0.197667   0.005620
    51  C   -0.259535  -0.004563
    52  H    0.194003   0.004573
    53  H    0.208428   0.006551
    54  H    0.154865   0.000550
    55  C   -0.254838  -0.004610
    56  H    0.201448   0.006379
    57  H    0.145165   0.000021
    58  H    0.197712   0.005612
    59  C   -0.259786  -0.004564
    60  H    0.194037   0.004560
    61  H    0.208484   0.006556
    62  H    0.154962   0.000557
 Sum of Mulliken charges =   3.00000   1.00000

 Dipole moment (field-independent basis, Debye):
    X=              0.0084    Y=              0.0001    Z=             -0.0001  Tot=              0.0084
 Quadrupole moment (field-independent basis, Debye-Ang):
   XX=            421.6599   YY=           -118.7113   ZZ=           -130.0357
   XY=              0.0020   XZ=             -0.0003   YZ=             -0.0048

 Normal termination of Gaussian 16 at Tue Jan 26 07:16:56 2021.
