 Gaussian 16, Revision A.03,
 Gaussian 16:  EM64L-G16RevA.03 25-Dec-2016

 ----------------------------------------------------------------------
 #P LC-wHPBE/TZVP iop(3/107=0183000000, 3/108=0183000000) scf=(conver=6
 ,fermi,ndamp=35,noincfock,novaracc,vshift=500,xqc)
 ----------------------------------------------------------------------

 ----------
 H32 C26 N4
 ----------
 Symbolic Z-matrix:
 Charge =  3 Multiplicity = 2

                         Standard orientation:
 ---------------------------------------------------------------------
 Center     Atomic      Atomic             Coordinates (Angstroms)
 Number     Number       Type             X           Y           Z
 ---------------------------------------------------------------------
      1          6           0        2.823961   -0.444264    1.111805
      2          6           0        3.524911   -0.000100    0.000001
      3          6           0        1.447297   -0.438089    1.110761
      4          6           0        2.823968    0.444049   -1.111840
      5          6           0        0.740218   -0.000107   -0.000031
      6          6           0        1.447325    0.437860   -1.110830
      7          1           0        0.914462   -0.797765    1.980986
      8          1           0        3.355363    0.783593   -1.991035
      9          1           0        0.914491    0.797490   -1.981076
     10          6           0       -0.740229   -0.000109   -0.000016
     11          6           0       -1.447379   -0.437502   -1.110991
     12          6           0       -1.447259    0.437322    1.111037
     13          6           0       -2.824033   -0.443666   -1.111944
     14          6           0       -2.823909    0.443539    1.112143
     15          6           0       -3.524910   -0.000034    0.000126
     16          1           0       -0.914614   -0.796709   -1.981454
     17          1           0       -0.914365    0.796519    1.981427
     18          1           0       -3.355477   -0.782802   -1.991269
     19          1           0       -3.355249    0.782652    1.991539
     20          1           0        3.355316   -0.783824    1.991014
     21          6           0       -4.975135   -0.000032    0.000145
     22          6           0       -6.146520    0.565054    0.408043
     23          6           0       -6.146453   -0.565050   -0.408017
     24          7           0       -6.780980    1.491697    1.066857
     25          7           0       -6.780843   -1.491604   -1.067037
     26          6           0       -6.057956    2.591048    1.684578
     27          1           0       -6.154708    2.545100    2.768364
     28          1           0       -5.008879    2.544629    1.410837
     29          1           0       -6.464629    3.537319    1.332266
     30          6           0       -8.228734    1.518275    1.186143
     31          1           0       -8.494477    1.775383    2.209103
     32          1           0       -8.659441    2.259109    0.513350
     33          1           0       -8.642938    0.539771    0.968827
     34          6           0       -6.057730   -2.591089   -1.684422
     35          1           0       -6.153192   -2.544651   -2.768303
     36          1           0       -5.008941   -2.545387   -1.409434
     37          1           0       -6.465326   -3.537274   -1.332961
     38          6           0       -8.228631   -1.518112   -1.186291
     39          1           0       -8.494234   -1.779605   -2.208151
     40          1           0       -8.659838   -2.255827   -0.510389
     41          1           0       -8.642467   -0.538433   -0.973542
     42          6           0        4.975109   -0.000078    0.000026
     43          6           0        6.146534   -0.565080    0.407916
     44          6           0        6.146403    0.565147   -0.407945
     45          7           0        6.781069   -1.491701    1.066705
     46          7           0        6.780732    1.491927   -1.066700
     47          6           0        6.058202   -2.591312    1.684129
     48          1           0        6.154554   -2.545406    2.767953
     49          1           0        5.009205   -2.545245    1.410016
     50          1           0        6.465319   -3.537423    1.331906
     51          6           0        8.228858   -1.518145    1.185797
     52          1           0        8.494704   -1.776946    2.208295
     53          1           0        8.659724   -2.257735    0.511728
     54          1           0        8.642813   -0.539154    0.970202
     55          6           0        6.057561    2.591370   -1.684106
     56          1           0        6.153074    2.544964   -2.767982
     57          1           0        5.008776    2.545628   -1.409122
     58          1           0        6.465122    3.537559   -1.332610
     59          6           0        8.228499    1.518584   -1.185941
     60          1           0        8.494145    1.779106   -2.208049
     61          1           0        8.659520    2.257040   -0.510729
     62          1           0        8.642516    0.539209   -0.972160
 ---------------------------------------------------------------------

 SCF Done:  E(ULC-wHPBE) =  -1227.18572710     A.U. after   31 cycles

 The electronic state is 2-A.
 Alpha  occ. eigenvalues --  -14.45566 -14.45565 -14.45564 -14.45561 -10.37474
 Alpha  occ. eigenvalues --  -10.37471 -10.37437 -10.37434 -10.34012 -10.34008
 Alpha  occ. eigenvalues --  -10.32703 -10.32701 -10.31555 -10.31541 -10.29587
 Alpha  occ. eigenvalues --  -10.29586 -10.29585 -10.29584 -10.29526 -10.29525
 Alpha  occ. eigenvalues --  -10.29523 -10.29523 -10.29357 -10.29356 -10.29356
 Alpha  occ. eigenvalues --  -10.29355 -10.29169 -10.29168 -10.29167 -10.29166
 Alpha  occ. eigenvalues --   -1.33273  -1.33270  -1.30322  -1.30319  -1.25496
 Alpha  occ. eigenvalues --   -1.25485  -1.21967  -1.20150  -1.14186  -1.09569
 Alpha  occ. eigenvalues --   -1.09537  -1.08885  -1.05930  -1.05816  -1.05510
 Alpha  occ. eigenvalues --   -1.05503  -1.04801  -1.04798  -1.03839  -1.03660
 Alpha  occ. eigenvalues --   -1.00672  -0.97498  -0.95548  -0.95052  -0.90804
 Alpha  occ. eigenvalues --   -0.90429  -0.88645  -0.88545  -0.88458  -0.88159
 Alpha  occ. eigenvalues --   -0.86205  -0.84680  -0.84384  -0.84097  -0.83883
 Alpha  occ. eigenvalues --   -0.83300  -0.83122  -0.82256  -0.81496  -0.81493
 Alpha  occ. eigenvalues --   -0.80982  -0.79430  -0.79035  -0.77705  -0.77460
 Alpha  occ. eigenvalues --   -0.77135  -0.76909  -0.76298  -0.75697  -0.75616
 Alpha  occ. eigenvalues --   -0.74829  -0.74710  -0.74476  -0.74154  -0.73473
 Alpha  occ. eigenvalues --   -0.73265  -0.73138  -0.73135  -0.73067  -0.72579
 Alpha  occ. eigenvalues --   -0.72565  -0.72170  -0.72130  -0.71146  -0.71024
 Alpha  occ. eigenvalues --   -0.70210  -0.70202  -0.69136  -0.68863  -0.66024
 Alpha  occ. eigenvalues --   -0.64771  -0.64765  -0.62562  -0.62398  -0.62322
 Alpha  occ. eigenvalues --   -0.58235  -0.57151
 Alpha virt. eigenvalues --   -0.31619  -0.28068  -0.26239  -0.26218  -0.21948
 Alpha virt. eigenvalues --   -0.21522  -0.21518  -0.20128  -0.19152  -0.19141
 Alpha virt. eigenvalues --   -0.15399  -0.15292  -0.15056  -0.14545  -0.13824

  Beta  occ. eigenvalues --  -14.45348 -14.45347 -14.45346 -14.45344 -10.37490
  Beta  occ. eigenvalues --  -10.37487 -10.37453 -10.37450 -10.33997 -10.33994
  Beta  occ. eigenvalues --  -10.32534 -10.32532 -10.31432 -10.31417 -10.29592
  Beta  occ. eigenvalues --  -10.29591 -10.29590 -10.29589 -10.29530 -10.29530
  Beta  occ. eigenvalues --  -10.29528 -10.29527 -10.29300 -10.29298 -10.29298
  Beta  occ. eigenvalues --  -10.29297 -10.29174 -10.29173 -10.29171 -10.29170
  Beta  occ. eigenvalues --   -1.33047  -1.33044  -1.30014  -1.30011  -1.25220
  Beta  occ. eigenvalues --   -1.25210  -1.21695  -1.19907  -1.13844  -1.09480
  Beta  occ. eigenvalues --   -1.09174  -1.08811  -1.05877  -1.05750  -1.05458
  Beta  occ. eigenvalues --   -1.05451  -1.04750  -1.04747  -1.03774  -1.03577
  Beta  occ. eigenvalues --   -1.00595  -0.97336  -0.95404  -0.94865  -0.90713
  Beta  occ. eigenvalues --   -0.90336  -0.88521  -0.88416  -0.88346  -0.88039
  Beta  occ. eigenvalues --   -0.86118  -0.84447  -0.84053  -0.84009  -0.83694
  Beta  occ. eigenvalues --   -0.83216  -0.83007  -0.82117  -0.81104  -0.81102
  Beta  occ. eigenvalues --   -0.80777  -0.79304  -0.78938  -0.77670  -0.77236
  Beta  occ. eigenvalues --   -0.76820  -0.76744  -0.76210  -0.75610  -0.75512
  Beta  occ. eigenvalues --   -0.74790  -0.74668  -0.74062  -0.73895  -0.73339
  Beta  occ. eigenvalues --   -0.73113  -0.73031  -0.73028  -0.72931  -0.72547
  Beta  occ. eigenvalues --   -0.72536  -0.72088  -0.71708  -0.71111  -0.70995
  Beta  occ. eigenvalues --   -0.70132  -0.70108  -0.69077  -0.68746  -0.64822
  Beta  occ. eigenvalues --   -0.63953  -0.63950  -0.62243  -0.62189  -0.60135
  Beta  occ. eigenvalues --   -0.54664
  Beta virt. eigenvalues --   -0.45700  -0.31045  -0.27292  -0.25851  -0.25691
  Beta virt. eigenvalues --   -0.21371  -0.21065  -0.21062  -0.19510  -0.19096
  Beta virt. eigenvalues --   -0.19086  -0.15368  -0.15255  -0.15030  -0.14506

 Mulliken charges and spin densities:
               1          2
     1  C   -0.078667  -0.011438
     2  C    0.167628   0.123075
     3  C   -0.125294   0.040462
     4  C   -0.078670  -0.011434
     5  C    0.027284   0.086274
     6  C   -0.125266   0.040446
     7  H    0.186057  -0.002425
     8  H    0.181939   0.000119
     9  H    0.186042  -0.002425
    10  C    0.027321   0.086203
    11  C   -0.125264   0.040465
    12  C   -0.125306   0.040486
    13  C   -0.078687  -0.011449
    14  C   -0.078658  -0.011463
    15  C    0.167601   0.123041
    16  H    0.186032  -0.002426
    17  H    0.186048  -0.002426
    18  H    0.181939   0.000120
    19  H    0.181919   0.000121
    20  H    0.181918   0.000119
    21  C   -0.474950  -0.000052
    22  C    0.083178  -0.007803
    23  C    0.083122  -0.007789
    24  N    0.053060   0.109538
    25  N    0.053132   0.109561
    26  C   -0.258381  -0.004106
    27  H    0.202415   0.006764
    28  H    0.148104  -0.000011
    29  H    0.198966   0.005934
    30  C   -0.262934  -0.004121
    31  H    0.195435   0.004814
    32  H    0.209486   0.007030
    33  H    0.156750   0.000560
    34  C   -0.258739  -0.004102
    35  H    0.202496   0.006769
    36  H    0.148160  -0.000010
    37  H    0.199068   0.005927
    38  C   -0.263529  -0.004126
    39  H    0.195508   0.004775
    40  H    0.209616   0.007048
    41  H    0.156998   0.000580
    42  C   -0.474965  -0.000045
    43  C    0.083203  -0.007811
    44  C    0.083142  -0.007809
    45  N    0.053136   0.109645
    46  N    0.053149   0.109645
    47  C   -0.258488  -0.004108
    48  H    0.202457   0.006772
    49  H    0.148121  -0.000011
    50  H    0.199008   0.005938
    51  C   -0.263163  -0.004126
    52  H    0.195473   0.004803
    53  H    0.209543   0.007044
    54  H    0.156845   0.000567
    55  C   -0.258686  -0.004106
    56  H    0.202500   0.006776
    57  H    0.148162  -0.000010
    58  H    0.199053   0.005929
    59  C   -0.263411  -0.004128
    60  H    0.195507   0.004789
    61  H    0.209599   0.007049
    62  H    0.156939   0.000575
 Sum of Mulliken charges =   3.00000   1.00000

 Dipole moment (field-independent basis, Debye):
    X=              0.0058    Y=              0.0001    Z=             -0.0001  Tot=              0.0058
 Quadrupole moment (field-independent basis, Debye-Ang):
   XX=            426.2812   YY=           -118.3040   ZZ=           -130.1006
   XY=              0.0018   XZ=             -0.0004   YZ=             -0.0038

 Normal termination of Gaussian 16 at Tue Jan 26 09:09:31 2021.
