 Gaussian 16, Revision A.03,
 Gaussian 16:  EM64L-G16RevA.03 25-Dec-2016

 ----------------------------------------------------------------------
 #P LC-wHPBE/TZVP iop(3/107=0200200000, 3/108=0200200000) scf=(conver=6
 ,fermi,ndamp=35,noincfock,novaracc,vshift=500,xqc)
 ----------------------------------------------------------------------

 ----------
 H32 C26 N4
 ----------
 Symbolic Z-matrix:
 Charge =  2 Multiplicity = 1

                         Standard orientation:
 ---------------------------------------------------------------------
 Center     Atomic      Atomic             Coordinates (Angstroms)
 Number     Number       Type             X           Y           Z
 ---------------------------------------------------------------------
      1          6           0        2.823961   -0.444264    1.111805
      2          6           0        3.524911   -0.000100    0.000001
      3          6           0        1.447297   -0.438089    1.110761
      4          6           0        2.823968    0.444049   -1.111840
      5          6           0        0.740218   -0.000107   -0.000031
      6          6           0        1.447325    0.437860   -1.110830
      7          1           0        0.914462   -0.797765    1.980986
      8          1           0        3.355363    0.783593   -1.991035
      9          1           0        0.914491    0.797490   -1.981076
     10          6           0       -0.740229   -0.000109   -0.000016
     11          6           0       -1.447379   -0.437502   -1.110991
     12          6           0       -1.447259    0.437322    1.111037
     13          6           0       -2.824033   -0.443666   -1.111944
     14          6           0       -2.823909    0.443539    1.112143
     15          6           0       -3.524910   -0.000034    0.000126
     16          1           0       -0.914614   -0.796709   -1.981454
     17          1           0       -0.914365    0.796519    1.981427
     18          1           0       -3.355477   -0.782802   -1.991269
     19          1           0       -3.355249    0.782652    1.991539
     20          1           0        3.355316   -0.783824    1.991014
     21          6           0       -4.975135   -0.000032    0.000145
     22          6           0       -6.146520    0.565054    0.408043
     23          6           0       -6.146453   -0.565050   -0.408017
     24          7           0       -6.780980    1.491697    1.066857
     25          7           0       -6.780843   -1.491604   -1.067037
     26          6           0       -6.057956    2.591048    1.684578
     27          1           0       -6.154708    2.545100    2.768364
     28          1           0       -5.008879    2.544629    1.410837
     29          1           0       -6.464629    3.537319    1.332266
     30          6           0       -8.228734    1.518275    1.186143
     31          1           0       -8.494477    1.775383    2.209103
     32          1           0       -8.659441    2.259109    0.513350
     33          1           0       -8.642938    0.539771    0.968827
     34          6           0       -6.057730   -2.591089   -1.684422
     35          1           0       -6.153192   -2.544651   -2.768303
     36          1           0       -5.008941   -2.545387   -1.409434
     37          1           0       -6.465326   -3.537274   -1.332961
     38          6           0       -8.228631   -1.518112   -1.186291
     39          1           0       -8.494234   -1.779605   -2.208151
     40          1           0       -8.659838   -2.255827   -0.510389
     41          1           0       -8.642467   -0.538433   -0.973542
     42          6           0        4.975109   -0.000078    0.000026
     43          6           0        6.146534   -0.565080    0.407916
     44          6           0        6.146403    0.565147   -0.407945
     45          7           0        6.781069   -1.491701    1.066705
     46          7           0        6.780732    1.491927   -1.066700
     47          6           0        6.058202   -2.591312    1.684129
     48          1           0        6.154554   -2.545406    2.767953
     49          1           0        5.009205   -2.545245    1.410016
     50          1           0        6.465319   -3.537423    1.331906
     51          6           0        8.228858   -1.518145    1.185797
     52          1           0        8.494704   -1.776946    2.208295
     53          1           0        8.659724   -2.257735    0.511728
     54          1           0        8.642813   -0.539154    0.970202
     55          6           0        6.057561    2.591370   -1.684106
     56          1           0        6.153074    2.544964   -2.767982
     57          1           0        5.008776    2.545628   -1.409122
     58          1           0        6.465122    3.537559   -1.332610
     59          6           0        8.228499    1.518584   -1.185941
     60          1           0        8.494145    1.779106   -2.208049
     61          1           0        8.659520    2.257040   -0.510729
     62          1           0        8.642516    0.539209   -0.972160
 ---------------------------------------------------------------------

 SCF Done:  E(RLC-wHPBE) =  -1227.67449467     A.U. after   14 cycles

 The electronic state is 1-A.
 Alpha  occ. eigenvalues --  -14.34888 -14.34888 -14.34887 -14.34887 -10.27476
 Alpha  occ. eigenvalues --  -10.27476 -10.27439 -10.27439 -10.23668 -10.23668
 Alpha  occ. eigenvalues --  -10.21066 -10.21065 -10.21065 -10.21064 -10.20976
 Alpha  occ. eigenvalues --  -10.20975 -10.20975 -10.20975 -10.20653 -10.20653
 Alpha  occ. eigenvalues --  -10.19264 -10.19250 -10.18561 -10.18561 -10.18560
 Alpha  occ. eigenvalues --  -10.18560 -10.17888 -10.17887 -10.17886 -10.17885
 Alpha  occ. eigenvalues --   -1.23284  -1.23284  -1.20502  -1.20501  -1.15343
 Alpha  occ. eigenvalues --   -1.15339  -1.10397  -1.08736  -1.02622  -0.98478
 Alpha  occ. eigenvalues --   -0.98224  -0.97846  -0.97140  -0.96930  -0.96780
 Alpha  occ. eigenvalues --   -0.96764  -0.95636  -0.95635  -0.94610  -0.94393
 Alpha  occ. eigenvalues --   -0.89631  -0.86197  -0.84418  -0.83793  -0.80108
 Alpha  occ. eigenvalues --   -0.79797  -0.79651  -0.79545  -0.79146  -0.78900
 Alpha  occ. eigenvalues --   -0.75899  -0.74722  -0.74656  -0.74654  -0.73882
 Alpha  occ. eigenvalues --   -0.73647  -0.73142  -0.72310  -0.72307  -0.71919
 Alpha  occ. eigenvalues --   -0.69852  -0.68466  -0.68141  -0.67224  -0.67182
 Alpha  occ. eigenvalues --   -0.66722  -0.66520  -0.66376  -0.66334  -0.66273
 Alpha  occ. eigenvalues --   -0.66012  -0.65146  -0.64905  -0.64881  -0.64728
 Alpha  occ. eigenvalues --   -0.64725  -0.64237  -0.63857  -0.63836  -0.63664
 Alpha  occ. eigenvalues --   -0.63095  -0.62540  -0.62496  -0.61632  -0.61236
 Alpha  occ. eigenvalues --   -0.59836  -0.59147  -0.58013  -0.57566  -0.55007
 Alpha  occ. eigenvalues --   -0.54997  -0.54211  -0.51035  -0.50941  -0.50860
 Alpha  occ. eigenvalues --   -0.47508  -0.45853
 Alpha virt. eigenvalues --   -0.19305  -0.15988  -0.13878  -0.13836  -0.10245
 Alpha virt. eigenvalues --   -0.10244  -0.09883  -0.09188  -0.09170  -0.07835
 Alpha virt. eigenvalues --   -0.06048  -0.05962  -0.05052  -0.04662  -0.04265

 Mulliken charges:
               1
     1  C   -0.093420
     2  C    0.144727
     3  C   -0.150093
     4  C   -0.093423
     5  C    0.016116
     6  C   -0.150067
     7  H    0.159886
     8  H    0.155750
     9  H    0.159872
    10  C    0.016140
    11  C   -0.150061
    12  C   -0.150102
    13  C   -0.093437
    14  C   -0.093408
    15  C    0.144726
    16  H    0.159868
    17  H    0.159885
    18  H    0.155752
    19  H    0.155730
    20  H    0.155728
    21  C   -0.474872
    22  C    0.073097
    23  C    0.073023
    24  N    0.017759
    25  N    0.017820
    26  C   -0.256355
    27  H    0.177713
    28  H    0.152480
    29  H    0.173649
    30  C   -0.258143
    31  H    0.173303
    32  H    0.184621
    33  H    0.146895
    34  C   -0.256693
    35  H    0.177797
    36  H    0.152525
    37  H    0.173748
    38  C   -0.258707
    39  H    0.173399
    40  H    0.184742
    41  H    0.147113
    42  C   -0.474891
    43  C    0.073111
    44  C    0.073052
    45  N    0.017804
    46  N    0.017814
    47  C   -0.256455
    48  H    0.177744
    49  H    0.152483
    50  H    0.173680
    51  C   -0.258359
    52  H    0.173339
    53  H    0.184664
    54  H    0.146976
    55  C   -0.256639
    56  H    0.177789
    57  H    0.152519
    58  H    0.173726
    59  C   -0.258594
    60  H    0.173381
    61  H    0.184717
    62  H    0.147058
 Sum of Mulliken charges =   2.00000

 Dipole moment (field-independent basis, Debye):
    X=             -0.0002    Y=              0.0001    Z=             -0.0004  Tot=              0.0005
 Quadrupole moment (field-independent basis, Debye-Ang):
   XX=            267.1411   YY=           -135.4678   ZZ=           -143.8433
   XY=              0.0040   XZ=              0.0008   YZ=             -0.0014

 Normal termination of Gaussian 16 at Tue Jan 26 12:13:19 2021.
