 Gaussian 16, Revision A.03,
 Gaussian 16:  EM64L-G16RevA.03 25-Dec-2016

 ----------------------------------------------------------------------
 #P LC-wHPBE/TZVP iop(3/107=0199900000, 3/108=0199900000) scf=(conver=6
 ,fermi,ndamp=35,noincfock,novaracc,vshift=500,xqc)
 ----------------------------------------------------------------------

 ----------
 H32 C26 N4
 ----------
 Symbolic Z-matrix:
 Charge =  3 Multiplicity = 2

                         Standard orientation:
 ---------------------------------------------------------------------
 Center     Atomic      Atomic             Coordinates (Angstroms)
 Number     Number       Type             X           Y           Z
 ---------------------------------------------------------------------
      1          6           0        2.823961   -0.444264    1.111805
      2          6           0        3.524911   -0.000100    0.000001
      3          6           0        1.447297   -0.438089    1.110761
      4          6           0        2.823968    0.444049   -1.111840
      5          6           0        0.740218   -0.000107   -0.000031
      6          6           0        1.447325    0.437860   -1.110830
      7          1           0        0.914462   -0.797765    1.980986
      8          1           0        3.355363    0.783593   -1.991035
      9          1           0        0.914491    0.797490   -1.981076
     10          6           0       -0.740229   -0.000109   -0.000016
     11          6           0       -1.447379   -0.437502   -1.110991
     12          6           0       -1.447259    0.437322    1.111037
     13          6           0       -2.824033   -0.443666   -1.111944
     14          6           0       -2.823909    0.443539    1.112143
     15          6           0       -3.524910   -0.000034    0.000126
     16          1           0       -0.914614   -0.796709   -1.981454
     17          1           0       -0.914365    0.796519    1.981427
     18          1           0       -3.355477   -0.782802   -1.991269
     19          1           0       -3.355249    0.782652    1.991539
     20          1           0        3.355316   -0.783824    1.991014
     21          6           0       -4.975135   -0.000032    0.000145
     22          6           0       -6.146520    0.565054    0.408043
     23          6           0       -6.146453   -0.565050   -0.408017
     24          7           0       -6.780980    1.491697    1.066857
     25          7           0       -6.780843   -1.491604   -1.067037
     26          6           0       -6.057956    2.591048    1.684578
     27          1           0       -6.154708    2.545100    2.768364
     28          1           0       -5.008879    2.544629    1.410837
     29          1           0       -6.464629    3.537319    1.332266
     30          6           0       -8.228734    1.518275    1.186143
     31          1           0       -8.494477    1.775383    2.209103
     32          1           0       -8.659441    2.259109    0.513350
     33          1           0       -8.642938    0.539771    0.968827
     34          6           0       -6.057730   -2.591089   -1.684422
     35          1           0       -6.153192   -2.544651   -2.768303
     36          1           0       -5.008941   -2.545387   -1.409434
     37          1           0       -6.465326   -3.537274   -1.332961
     38          6           0       -8.228631   -1.518112   -1.186291
     39          1           0       -8.494234   -1.779605   -2.208151
     40          1           0       -8.659838   -2.255827   -0.510389
     41          1           0       -8.642467   -0.538433   -0.973542
     42          6           0        4.975109   -0.000078    0.000026
     43          6           0        6.146534   -0.565080    0.407916
     44          6           0        6.146403    0.565147   -0.407945
     45          7           0        6.781069   -1.491701    1.066705
     46          7           0        6.780732    1.491927   -1.066700
     47          6           0        6.058202   -2.591312    1.684129
     48          1           0        6.154554   -2.545406    2.767953
     49          1           0        5.009205   -2.545245    1.410016
     50          1           0        6.465319   -3.537423    1.331906
     51          6           0        8.228858   -1.518145    1.185797
     52          1           0        8.494704   -1.776946    2.208295
     53          1           0        8.659724   -2.257735    0.511728
     54          1           0        8.642813   -0.539154    0.970202
     55          6           0        6.057561    2.591370   -1.684106
     56          1           0        6.153074    2.544964   -2.767982
     57          1           0        5.008776    2.545628   -1.409122
     58          1           0        6.465122    3.537559   -1.332610
     59          6           0        8.228499    1.518584   -1.185941
     60          1           0        8.494145    1.779106   -2.208049
     61          1           0        8.659520    2.257040   -0.510729
     62          1           0        8.642516    0.539209   -0.972160
 ---------------------------------------------------------------------

 SCF Done:  E(ULC-wHPBE) =  -1227.21546877     A.U. after   31 cycles

 The electronic state is 2-A.
 Alpha  occ. eigenvalues --  -14.46444 -14.46442 -14.46440 -14.46438 -10.38484
 Alpha  occ. eigenvalues --  -10.38481 -10.38447 -10.38443 -10.34955 -10.34951
 Alpha  occ. eigenvalues --  -10.33804 -10.33802 -10.32677 -10.32663 -10.30635
 Alpha  occ. eigenvalues --  -10.30633 -10.30632 -10.30631 -10.30445 -10.30444
 Alpha  occ. eigenvalues --  -10.30443 -10.30442 -10.30442 -10.30441 -10.30441
 Alpha  occ. eigenvalues --  -10.30440 -10.30072 -10.30071 -10.30069 -10.30068
 Alpha  occ. eigenvalues --   -1.34265  -1.34261  -1.31269  -1.31266  -1.26459
 Alpha  occ. eigenvalues --   -1.26447  -1.23114  -1.21276  -1.15293  -1.10652
 Alpha  occ. eigenvalues --   -1.10612  -1.09958  -1.06852  -1.06738  -1.06415
 Alpha  occ. eigenvalues --   -1.06409  -1.05697  -1.05693  -1.04723  -1.04535
 Alpha  occ. eigenvalues --   -1.01657  -0.98513  -0.96507  -0.96040  -0.91752
 Alpha  occ. eigenvalues --   -0.91368  -0.89448  -0.89343  -0.89275  -0.88951
 Alpha  occ. eigenvalues --   -0.87065  -0.85541  -0.85221  -0.84872  -0.84713
 Alpha  occ. eigenvalues --   -0.84096  -0.83893  -0.83026  -0.82274  -0.82270
 Alpha  occ. eigenvalues --   -0.81825  -0.80293  -0.79896  -0.78558  -0.78309
 Alpha  occ. eigenvalues --   -0.77923  -0.77721  -0.77084  -0.76425  -0.76356
 Alpha  occ. eigenvalues --   -0.75542  -0.75426  -0.75296  -0.74916  -0.74177
 Alpha  occ. eigenvalues --   -0.73968  -0.73834  -0.73831  -0.73762  -0.73258
 Alpha  occ. eigenvalues --   -0.73247  -0.72902  -0.72882  -0.71839  -0.71693
 Alpha  occ. eigenvalues --   -0.70959  -0.70885  -0.69857  -0.69626  -0.66723
 Alpha  occ. eigenvalues --   -0.65390  -0.65385  -0.63186  -0.63046  -0.62962
 Alpha  occ. eigenvalues --   -0.58706  -0.57635
 Alpha virt. eigenvalues --   -0.31345  -0.27703  -0.25894  -0.25878  -0.21472
 Alpha virt. eigenvalues --   -0.21009  -0.21005  -0.19664  -0.18708  -0.18701
 Alpha virt. eigenvalues --   -0.14990  -0.14908  -0.14634  -0.14126  -0.13354

  Beta  occ. eigenvalues --  -14.46228 -14.46226 -14.46224 -14.46222 -10.38500
  Beta  occ. eigenvalues --  -10.38496 -10.38463 -10.38459 -10.34948 -10.34944
  Beta  occ. eigenvalues --  -10.33625 -10.33623 -10.32550 -10.32535 -10.30644
  Beta  occ. eigenvalues --  -10.30643 -10.30642 -10.30640 -10.30449 -10.30449
  Beta  occ. eigenvalues --  -10.30446 -10.30446 -10.30381 -10.30380 -10.30379
  Beta  occ. eigenvalues --  -10.30378 -10.30077 -10.30076 -10.30074 -10.30073
  Beta  occ. eigenvalues --   -1.34043  -1.34039  -1.30965  -1.30961  -1.26183
  Beta  occ. eigenvalues --   -1.26170  -1.22830  -1.21021  -1.14932  -1.10562
  Beta  occ. eigenvalues --   -1.10218  -1.09884  -1.06801  -1.06672  -1.06364
  Beta  occ. eigenvalues --   -1.06358  -1.05649  -1.05645  -1.04661  -1.04453
  Beta  occ. eigenvalues --   -1.01580  -0.98345  -0.96360  -0.95845  -0.91659
  Beta  occ. eigenvalues --   -0.91274  -0.89323  -0.89213  -0.89164  -0.88829
  Beta  occ. eigenvalues --   -0.86977  -0.85316  -0.84895  -0.84784  -0.84518
  Beta  occ. eigenvalues --   -0.84012  -0.83775  -0.82887  -0.81876  -0.81873
  Beta  occ. eigenvalues --   -0.81607  -0.80161  -0.79797  -0.78522  -0.78079
  Beta  occ. eigenvalues --   -0.77582  -0.77535  -0.76993  -0.76338  -0.76246
  Beta  occ. eigenvalues --   -0.75502  -0.75385  -0.74857  -0.74610  -0.74039
  Beta  occ. eigenvalues --   -0.73809  -0.73725  -0.73721  -0.73620  -0.73227
  Beta  occ. eigenvalues --   -0.73218  -0.72817  -0.72426  -0.71801  -0.71665
  Beta  occ. eigenvalues --   -0.70856  -0.70812  -0.69797  -0.69504  -0.65364
  Beta  occ. eigenvalues --   -0.64540  -0.64537  -0.62900  -0.62843  -0.60502
  Beta  occ. eigenvalues --   -0.55037
  Beta virt. eigenvalues --   -0.45724  -0.30775  -0.26893  -0.25469  -0.25295
  Beta virt. eigenvalues --   -0.20871  -0.20529  -0.20526  -0.19005  -0.18653
  Beta virt. eigenvalues --   -0.18648  -0.14961  -0.14871  -0.14611  -0.14087

 Mulliken charges and spin densities:
               1          2
     1  C   -0.079032  -0.015311
     2  C    0.165922   0.130601
     3  C   -0.126074   0.043837
     4  C   -0.079035  -0.015306
     5  C    0.026899   0.088500
     6  C   -0.126046   0.043821
     7  H    0.188259  -0.002603
     8  H    0.184212   0.000258
     9  H    0.188245  -0.002602
    10  C    0.026937   0.088408
    11  C   -0.126045   0.043846
    12  C   -0.126086   0.043868
    13  C   -0.079053  -0.015327
    14  C   -0.079025  -0.015342
    15  C    0.165893   0.130560
    16  H    0.188233  -0.002603
    17  H    0.188249  -0.002604
    18  H    0.184211   0.000260
    19  H    0.184190   0.000260
    20  H    0.184190   0.000258
    21  C   -0.473502  -0.006290
    22  C    0.082637  -0.006881
    23  C    0.082586  -0.006866
    24  N    0.051668   0.108454
    25  N    0.051731   0.108476
    26  C   -0.256417  -0.004333
    27  H    0.201856   0.006587
    28  H    0.146699   0.000001
    29  H    0.198295   0.005794
    30  C   -0.261093  -0.004320
    31  H    0.194712   0.004713
    32  H    0.208894   0.006808
    33  H    0.155814   0.000552
    34  C   -0.256776  -0.004329
    35  H    0.201937   0.006592
    36  H    0.146756   0.000002
    37  H    0.198397   0.005787
    38  C   -0.261690  -0.004325
    39  H    0.194785   0.004675
    40  H    0.209025   0.006825
    41  H    0.156066   0.000571
    42  C   -0.473514  -0.006280
    43  C    0.082664  -0.006892
    44  C    0.082605  -0.006890
    45  N    0.051747   0.108578
    46  N    0.051753   0.108578
    47  C   -0.256525  -0.004336
    48  H    0.201900   0.006596
    49  H    0.146717   0.000001
    50  H    0.198339   0.005798
    51  C   -0.261322  -0.004327
    52  H    0.194752   0.004703
    53  H    0.208954   0.006823
    54  H    0.155910   0.000560
    55  C   -0.256722  -0.004334
    56  H    0.201943   0.006600
    57  H    0.146759   0.000002
    58  H    0.198384   0.005790
    59  C   -0.261571  -0.004328
    60  H    0.194786   0.004690
    61  H    0.209010   0.006828
    62  H    0.156006   0.000567
 Sum of Mulliken charges =   3.00000   1.00000

 Dipole moment (field-independent basis, Debye):
    X=              0.0069    Y=              0.0001    Z=             -0.0001  Tot=              0.0069
 Quadrupole moment (field-independent basis, Debye-Ang):
   XX=            424.2479   YY=           -118.4847   ZZ=           -130.0733
   XY=              0.0017   XZ=             -0.0004   YZ=             -0.0042

 Normal termination of Gaussian 16 at Tue Jan 26 11:58:29 2021.
