 Gaussian 16, Revision A.03,
 Gaussian 16:  EM64L-G16RevA.03 25-Dec-2016

 ----------------------------------------------------------------------
 #P LC-wHPBE/TZVP iop(3/107=0197300000, 3/108=0197300000) scf=(conver=6
 ,fermi,ndamp=35,noincfock,novaracc,vshift=500,xqc)
 ----------------------------------------------------------------------

 ----------
 H32 C26 N4
 ----------
 Symbolic Z-matrix:
 Charge =  3 Multiplicity = 2

                         Standard orientation:
 ---------------------------------------------------------------------
 Center     Atomic      Atomic             Coordinates (Angstroms)
 Number     Number       Type             X           Y           Z
 ---------------------------------------------------------------------
      1          6           0        2.823961   -0.444264    1.111805
      2          6           0        3.524911   -0.000100    0.000001
      3          6           0        1.447297   -0.438089    1.110761
      4          6           0        2.823968    0.444049   -1.111840
      5          6           0        0.740218   -0.000107   -0.000031
      6          6           0        1.447325    0.437860   -1.110830
      7          1           0        0.914462   -0.797765    1.980986
      8          1           0        3.355363    0.783593   -1.991035
      9          1           0        0.914491    0.797490   -1.981076
     10          6           0       -0.740229   -0.000109   -0.000016
     11          6           0       -1.447379   -0.437502   -1.110991
     12          6           0       -1.447259    0.437322    1.111037
     13          6           0       -2.824033   -0.443666   -1.111944
     14          6           0       -2.823909    0.443539    1.112143
     15          6           0       -3.524910   -0.000034    0.000126
     16          1           0       -0.914614   -0.796709   -1.981454
     17          1           0       -0.914365    0.796519    1.981427
     18          1           0       -3.355477   -0.782802   -1.991269
     19          1           0       -3.355249    0.782652    1.991539
     20          1           0        3.355316   -0.783824    1.991014
     21          6           0       -4.975135   -0.000032    0.000145
     22          6           0       -6.146520    0.565054    0.408043
     23          6           0       -6.146453   -0.565050   -0.408017
     24          7           0       -6.780980    1.491697    1.066857
     25          7           0       -6.780843   -1.491604   -1.067037
     26          6           0       -6.057956    2.591048    1.684578
     27          1           0       -6.154708    2.545100    2.768364
     28          1           0       -5.008879    2.544629    1.410837
     29          1           0       -6.464629    3.537319    1.332266
     30          6           0       -8.228734    1.518275    1.186143
     31          1           0       -8.494477    1.775383    2.209103
     32          1           0       -8.659441    2.259109    0.513350
     33          1           0       -8.642938    0.539771    0.968827
     34          6           0       -6.057730   -2.591089   -1.684422
     35          1           0       -6.153192   -2.544651   -2.768303
     36          1           0       -5.008941   -2.545387   -1.409434
     37          1           0       -6.465326   -3.537274   -1.332961
     38          6           0       -8.228631   -1.518112   -1.186291
     39          1           0       -8.494234   -1.779605   -2.208151
     40          1           0       -8.659838   -2.255827   -0.510389
     41          1           0       -8.642467   -0.538433   -0.973542
     42          6           0        4.975109   -0.000078    0.000026
     43          6           0        6.146534   -0.565080    0.407916
     44          6           0        6.146403    0.565147   -0.407945
     45          7           0        6.781069   -1.491701    1.066705
     46          7           0        6.780732    1.491927   -1.066700
     47          6           0        6.058202   -2.591312    1.684129
     48          1           0        6.154554   -2.545406    2.767953
     49          1           0        5.009205   -2.545245    1.410016
     50          1           0        6.465319   -3.537423    1.331906
     51          6           0        8.228858   -1.518145    1.185797
     52          1           0        8.494704   -1.776946    2.208295
     53          1           0        8.659724   -2.257735    0.511728
     54          1           0        8.642813   -0.539154    0.970202
     55          6           0        6.057561    2.591370   -1.684106
     56          1           0        6.153074    2.544964   -2.767982
     57          1           0        5.008776    2.545628   -1.409122
     58          1           0        6.465122    3.537559   -1.332610
     59          6           0        8.228499    1.518584   -1.185941
     60          1           0        8.494145    1.779106   -2.208049
     61          1           0        8.659520    2.257040   -0.510729
     62          1           0        8.642516    0.539209   -0.972160
 ---------------------------------------------------------------------

 SCF Done:  E(ULC-wHPBE) =  -1227.21090555     A.U. after   31 cycles

 The electronic state is 2-A.
 Alpha  occ. eigenvalues --  -14.46309 -14.46307 -14.46306 -14.46304 -10.38329
 Alpha  occ. eigenvalues --  -10.38325 -10.38291 -10.38288 -10.34810 -10.34806
 Alpha  occ. eigenvalues --  -10.33635 -10.33632 -10.32504 -10.32490 -10.30474
 Alpha  occ. eigenvalues --  -10.30472 -10.30471 -10.30470 -10.30303 -10.30303
 Alpha  occ. eigenvalues --  -10.30301 -10.30300 -10.30276 -10.30275 -10.30274
 Alpha  occ. eigenvalues --  -10.30273 -10.29933 -10.29932 -10.29930 -10.29929
 Alpha  occ. eigenvalues --   -1.34112  -1.34109  -1.31124  -1.31120  -1.26312
 Alpha  occ. eigenvalues --   -1.26299  -1.22938  -1.21103  -1.15123  -1.10486
 Alpha  occ. eigenvalues --   -1.10447  -1.09793  -1.06711  -1.06597  -1.06277
 Alpha  occ. eigenvalues --   -1.06270  -1.05560  -1.05556  -1.04588  -1.04401
 Alpha  occ. eigenvalues --   -1.01507  -0.98358  -0.96361  -0.95889  -0.91608
 Alpha  occ. eigenvalues --   -0.91225  -0.89326  -0.89222  -0.89151  -0.88831
 Alpha  occ. eigenvalues --   -0.86934  -0.85410  -0.85093  -0.84755  -0.84587
 Alpha  occ. eigenvalues --   -0.83975  -0.83776  -0.82909  -0.82156  -0.82152
 Alpha  occ. eigenvalues --   -0.81697  -0.80162  -0.79766  -0.78428  -0.78180
 Alpha  occ. eigenvalues --   -0.77804  -0.77598  -0.76965  -0.76315  -0.76244
 Alpha  occ. eigenvalues --   -0.75434  -0.75318  -0.75173  -0.74801  -0.74071
 Alpha  occ. eigenvalues --   -0.73862  -0.73729  -0.73726  -0.73657  -0.73156
 Alpha  occ. eigenvalues --   -0.73144  -0.72791  -0.72769  -0.71734  -0.71592
 Alpha  occ. eigenvalues --   -0.70847  -0.70782  -0.69748  -0.69510  -0.66619
 Alpha  occ. eigenvalues --   -0.65297  -0.65292  -0.63093  -0.62950  -0.62866
 Alpha  occ. eigenvalues --   -0.58635  -0.57563
 Alpha virt. eigenvalues --   -0.31384  -0.27756  -0.25944  -0.25927  -0.21543
 Alpha virt. eigenvalues --   -0.21085  -0.21081  -0.19733  -0.18774  -0.18766
 Alpha virt. eigenvalues --   -0.15050  -0.14964  -0.14696  -0.14188  -0.13423

  Beta  occ. eigenvalues --  -14.46093 -14.46091 -14.46090 -14.46088 -10.38344
  Beta  occ. eigenvalues --  -10.38341 -10.38307 -10.38304 -10.34802 -10.34798
  Beta  occ. eigenvalues --  -10.33458 -10.33455 -10.32378 -10.32363 -10.30482
  Beta  occ. eigenvalues --  -10.30481 -10.30480 -10.30479 -10.30308 -10.30307
  Beta  occ. eigenvalues --  -10.30305 -10.30304 -10.30215 -10.30213 -10.30213
  Beta  occ. eigenvalues --  -10.30211 -10.29938 -10.29937 -10.29935 -10.29934
  Beta  occ. eigenvalues --   -1.33890  -1.33886  -1.30819  -1.30816  -1.26035
  Beta  occ. eigenvalues --   -1.26023  -1.22655  -1.20849  -1.14765  -1.10396
  Beta  occ. eigenvalues --   -1.10058  -1.09719  -1.06659  -1.06531  -1.06226
  Beta  occ. eigenvalues --   -1.06219  -1.05511  -1.05508  -1.04525  -1.04319
  Beta  occ. eigenvalues --   -1.01429  -0.98191  -0.96214  -0.95695  -0.91515
  Beta  occ. eigenvalues --   -0.91131  -0.89201  -0.89092  -0.89040  -0.88709
  Beta  occ. eigenvalues --   -0.86846  -0.85184  -0.84767  -0.84667  -0.84393
  Beta  occ. eigenvalues --   -0.83892  -0.83658  -0.82771  -0.81759  -0.81756
  Beta  occ. eigenvalues --   -0.81481  -0.80031  -0.79666  -0.78392  -0.77951
  Beta  occ. eigenvalues --   -0.77467  -0.77416  -0.76874  -0.76228  -0.76135
  Beta  occ. eigenvalues --   -0.75395  -0.75277  -0.74737  -0.74502  -0.73934
  Beta  occ. eigenvalues --   -0.73704  -0.73620  -0.73616  -0.73516  -0.73124
  Beta  occ. eigenvalues --   -0.73115  -0.72707  -0.72319  -0.71696  -0.71564
  Beta  occ. eigenvalues --   -0.70744  -0.70710  -0.69688  -0.69389  -0.65284
  Beta  occ. eigenvalues --   -0.64451  -0.64449  -0.62801  -0.62745  -0.60448
  Beta  occ. eigenvalues --   -0.54979
  Beta virt. eigenvalues --   -0.45720  -0.30814  -0.26952  -0.25525  -0.25353
  Beta virt. eigenvalues --   -0.20945  -0.20609  -0.20606  -0.19080  -0.18718
  Beta virt. eigenvalues --   -0.18712  -0.15020  -0.14928  -0.14672  -0.14149

 Mulliken charges and spin densities:
               1          2
     1  C   -0.078954  -0.014681
     2  C    0.166153   0.129417
     3  C   -0.125951   0.043293
     4  C   -0.078957  -0.014677
     5  C    0.026977   0.088173
     6  C   -0.125923   0.043277
     7  H    0.187902  -0.002574
     8  H    0.183843   0.000235
     9  H    0.187888  -0.002574
    10  C    0.027015   0.088084
    11  C   -0.125922   0.043301
    12  C   -0.125963   0.043322
    13  C   -0.078974  -0.014697
    14  C   -0.078946  -0.014711
    15  C    0.166125   0.129377
    16  H    0.187876  -0.002575
    17  H    0.187892  -0.002575
    18  H    0.183842   0.000237
    19  H    0.183822   0.000237
    20  H    0.183821   0.000236
    21  C   -0.473758  -0.005327
    22  C    0.082718  -0.007032
    23  C    0.082666  -0.007017
    24  N    0.051917   0.108627
    25  N    0.051980   0.108649
    26  C   -0.256695  -0.004298
    27  H    0.201933   0.006615
    28  H    0.146909  -0.000001
    29  H    0.198391   0.005815
    30  C   -0.261354  -0.004290
    31  H    0.194817   0.004729
    32  H    0.208975   0.006842
    33  H    0.155953   0.000553
    34  C   -0.257053  -0.004295
    35  H    0.202014   0.006619
    36  H    0.146966  -0.000000
    37  H    0.198493   0.005808
    38  C   -0.261951  -0.004295
    39  H    0.194890   0.004691
    40  H    0.209106   0.006859
    41  H    0.156205   0.000573
    42  C   -0.473774  -0.005317
    43  C    0.082743  -0.007042
    44  C    0.082684  -0.007041
    45  N    0.052000   0.108748
    46  N    0.052007   0.108748
    47  C   -0.256803  -0.004302
    48  H    0.201976   0.006623
    49  H    0.146926  -0.000001
    50  H    0.198434   0.005820
    51  C   -0.261584  -0.004296
    52  H    0.194856   0.004719
    53  H    0.209034   0.006856
    54  H    0.156049   0.000561
    55  C   -0.257000  -0.004300
    56  H    0.202020   0.006627
    57  H    0.146969   0.000000
    58  H    0.198480   0.005812
    59  C   -0.261832  -0.004298
    60  H    0.194891   0.004705
    61  H    0.209091   0.006862
    62  H    0.156145   0.000568
 Sum of Mulliken charges =   3.00000   1.00000

 Dipole moment (field-independent basis, Debye):
    X=              0.0067    Y=              0.0001    Z=             -0.0001  Tot=              0.0067
 Quadrupole moment (field-independent basis, Debye-Ang):
   XX=            424.5606   YY=           -118.4569   ZZ=           -130.0777
   XY=              0.0017   XZ=             -0.0004   YZ=             -0.0042

 Normal termination of Gaussian 16 at Tue Jan 26 11:02:08 2021.
