 Gaussian 16, Revision A.03,
 Gaussian 16:  EM64L-G16RevA.03 25-Dec-2016

 ----------------------------------------------------------------------
 #P LC-wHPBE/TZVP iop(3/107=0220900000, 3/108=0220900000) scf=(conver=6
 ,fermi,ndamp=35,noincfock,novaracc,vshift=500,xqc)
 ----------------------------------------------------------------------

 ----------
 H32 C26 N4
 ----------
 Symbolic Z-matrix:
 Charge =  2 Multiplicity = 1

                         Standard orientation:
 ---------------------------------------------------------------------
 Center     Atomic      Atomic             Coordinates (Angstroms)
 Number     Number       Type             X           Y           Z
 ---------------------------------------------------------------------
      1          6           0        2.823961   -0.444264    1.111805
      2          6           0        3.524911   -0.000100    0.000001
      3          6           0        1.447297   -0.438089    1.110761
      4          6           0        2.823968    0.444049   -1.111840
      5          6           0        0.740218   -0.000107   -0.000031
      6          6           0        1.447325    0.437860   -1.110830
      7          1           0        0.914462   -0.797765    1.980986
      8          1           0        3.355363    0.783593   -1.991035
      9          1           0        0.914491    0.797490   -1.981076
     10          6           0       -0.740229   -0.000109   -0.000016
     11          6           0       -1.447379   -0.437502   -1.110991
     12          6           0       -1.447259    0.437322    1.111037
     13          6           0       -2.824033   -0.443666   -1.111944
     14          6           0       -2.823909    0.443539    1.112143
     15          6           0       -3.524910   -0.000034    0.000126
     16          1           0       -0.914614   -0.796709   -1.981454
     17          1           0       -0.914365    0.796519    1.981427
     18          1           0       -3.355477   -0.782802   -1.991269
     19          1           0       -3.355249    0.782652    1.991539
     20          1           0        3.355316   -0.783824    1.991014
     21          6           0       -4.975135   -0.000032    0.000145
     22          6           0       -6.146520    0.565054    0.408043
     23          6           0       -6.146453   -0.565050   -0.408017
     24          7           0       -6.780980    1.491697    1.066857
     25          7           0       -6.780843   -1.491604   -1.067037
     26          6           0       -6.057956    2.591048    1.684578
     27          1           0       -6.154708    2.545100    2.768364
     28          1           0       -5.008879    2.544629    1.410837
     29          1           0       -6.464629    3.537319    1.332266
     30          6           0       -8.228734    1.518275    1.186143
     31          1           0       -8.494477    1.775383    2.209103
     32          1           0       -8.659441    2.259109    0.513350
     33          1           0       -8.642938    0.539771    0.968827
     34          6           0       -6.057730   -2.591089   -1.684422
     35          1           0       -6.153192   -2.544651   -2.768303
     36          1           0       -5.008941   -2.545387   -1.409434
     37          1           0       -6.465326   -3.537274   -1.332961
     38          6           0       -8.228631   -1.518112   -1.186291
     39          1           0       -8.494234   -1.779605   -2.208151
     40          1           0       -8.659838   -2.255827   -0.510389
     41          1           0       -8.642467   -0.538433   -0.973542
     42          6           0        4.975109   -0.000078    0.000026
     43          6           0        6.146534   -0.565080    0.407916
     44          6           0        6.146403    0.565147   -0.407945
     45          7           0        6.781069   -1.491701    1.066705
     46          7           0        6.780732    1.491927   -1.066700
     47          6           0        6.058202   -2.591312    1.684129
     48          1           0        6.154554   -2.545406    2.767953
     49          1           0        5.009205   -2.545245    1.410016
     50          1           0        6.465319   -3.537423    1.331906
     51          6           0        8.228858   -1.518145    1.185797
     52          1           0        8.494704   -1.776946    2.208295
     53          1           0        8.659724   -2.257735    0.511728
     54          1           0        8.642813   -0.539154    0.970202
     55          6           0        6.057561    2.591370   -1.684106
     56          1           0        6.153074    2.544964   -2.767982
     57          1           0        5.008776    2.545628   -1.409122
     58          1           0        6.465122    3.537559   -1.332610
     59          6           0        8.228499    1.518584   -1.185941
     60          1           0        8.494145    1.779106   -2.208049
     61          1           0        8.659520    2.257040   -0.510729
     62          1           0        8.642516    0.539209   -0.972160
 ---------------------------------------------------------------------

 SCF Done:  E(RLC-wHPBE) =  -1227.71326178     A.U. after   14 cycles

 The electronic state is 1-A.
 Alpha  occ. eigenvalues --  -14.36011 -14.36011 -14.36010 -14.36010 -10.28749
 Alpha  occ. eigenvalues --  -10.28748 -10.28711 -10.28711 -10.24889 -10.24889
 Alpha  occ. eigenvalues --  -10.22219 -10.22218 -10.22218 -10.22218 -10.22129
 Alpha  occ. eigenvalues --  -10.22129 -10.22129 -10.22129 -10.21834 -10.21834
 Alpha  occ. eigenvalues --  -10.20442 -10.20428 -10.19739 -10.19739 -10.19738
 Alpha  occ. eigenvalues --  -10.19737 -10.19054 -10.19053 -10.19052 -10.19051
 Alpha  occ. eigenvalues --   -1.24540  -1.24540  -1.21708  -1.21708  -1.16549
 Alpha  occ. eigenvalues --   -1.16545  -1.11648  -1.09975  -1.03830  -0.99660
 Alpha  occ. eigenvalues --   -0.99397  -0.99020  -0.98290  -0.98077  -0.97918
 Alpha  occ. eigenvalues --   -0.97902  -0.96751  -0.96750  -0.95707  -0.95485
 Alpha  occ. eigenvalues --   -0.90726  -0.87278  -0.85468  -0.84844  -0.81127
 Alpha  occ. eigenvalues --   -0.80804  -0.80624  -0.80515  -0.80120  -0.79868
 Alpha  occ. eigenvalues --   -0.76859  -0.75746  -0.75675  -0.75580  -0.74794
 Alpha  occ. eigenvalues --   -0.74548  -0.74063  -0.73265  -0.73261  -0.72830
 Alpha  occ. eigenvalues --   -0.70754  -0.69363  -0.69039  -0.68132  -0.68081
 Alpha  occ. eigenvalues --   -0.67604  -0.67387  -0.67254  -0.67203  -0.67136
 Alpha  occ. eigenvalues --   -0.66876  -0.65987  -0.65756  -0.65732  -0.65578
 Alpha  occ. eigenvalues --   -0.65575  -0.65089  -0.64682  -0.64660  -0.64513
 Alpha  occ. eigenvalues --   -0.63965  -0.63352  -0.63309  -0.62437  -0.62090
 Alpha  occ. eigenvalues --   -0.60623  -0.59933  -0.58779  -0.58330  -0.55765
 Alpha  occ. eigenvalues --   -0.55755  -0.54877  -0.51642  -0.51548  -0.51460
 Alpha  occ. eigenvalues --   -0.48056  -0.46359
 Alpha virt. eigenvalues --   -0.18929  -0.15549  -0.13405  -0.13366  -0.09716
 Alpha virt. eigenvalues --   -0.09715  -0.09342  -0.08728  -0.08712  -0.07281
 Alpha virt. eigenvalues --   -0.05604  -0.05520  -0.04600  -0.04195  -0.03772

 Mulliken charges:
               1
     1  C   -0.094409
     2  C    0.142238
     3  C   -0.152275
     4  C   -0.094413
     5  C    0.014473
     6  C   -0.152249
     7  H    0.162550
     8  H    0.158442
     9  H    0.162536
    10  C    0.014497
    11  C   -0.152242
    12  C   -0.152283
    13  C   -0.094426
    14  C   -0.094397
    15  C    0.142238
    16  H    0.162533
    17  H    0.162550
    18  H    0.158443
    19  H    0.158421
    20  H    0.158419
    21  C   -0.470404
    22  C    0.072271
    23  C    0.072203
    24  N    0.015270
    25  N    0.015325
    26  C   -0.254190
    27  H    0.177446
    28  H    0.151549
    29  H    0.173136
    30  C   -0.255939
    31  H    0.172813
    32  H    0.184391
    33  H    0.145917
    34  C   -0.254528
    35  H    0.177530
    36  H    0.151595
    37  H    0.173234
    38  C   -0.256506
    39  H    0.172909
    40  H    0.184513
    41  H    0.146140
    42  C   -0.470424
    43  C    0.072287
    44  C    0.072232
    45  N    0.015313
    46  N    0.015320
    47  C   -0.254290
    48  H    0.177477
    49  H    0.151552
    50  H    0.173167
    51  C   -0.256156
    52  H    0.172849
    53  H    0.184434
    54  H    0.145999
    55  C   -0.254474
    56  H    0.177522
    57  H    0.151589
    58  H    0.173212
    59  C   -0.256392
    60  H    0.172891
    61  H    0.184487
    62  H    0.146083
 Sum of Mulliken charges =   2.00000

 Dipole moment (field-independent basis, Debye):
    X=             -0.0002    Y=              0.0001    Z=             -0.0004  Tot=              0.0005
 Quadrupole moment (field-independent basis, Debye-Ang):
   XX=            267.0602   YY=           -135.4645   ZZ=           -143.7411
   XY=              0.0040   XZ=              0.0008   YZ=             -0.0014

 Normal termination of Gaussian 16 at Tue Jan 26 06:34:09 2021.
