 Gaussian 16, Revision A.03,
 Gaussian 16:  EM64L-G16RevA.03 25-Dec-2016

 ----------------------------------------------------------------------
 #P LC-wHPBE/TZVP iop(3/107=0199900000, 3/108=0199900000) scf=(conver=6
 ,fermi,ndamp=35,noincfock,novaracc,vshift=500,xqc)
 ----------------------------------------------------------------------

 ----------
 H32 C26 N4
 ----------
 Symbolic Z-matrix:
 Charge =  2 Multiplicity = 1

                         Standard orientation:
 ---------------------------------------------------------------------
 Center     Atomic      Atomic             Coordinates (Angstroms)
 Number     Number       Type             X           Y           Z
 ---------------------------------------------------------------------
      1          6           0        2.823961   -0.444264    1.111805
      2          6           0        3.524911   -0.000100    0.000001
      3          6           0        1.447297   -0.438089    1.110761
      4          6           0        2.823968    0.444049   -1.111840
      5          6           0        0.740218   -0.000107   -0.000031
      6          6           0        1.447325    0.437860   -1.110830
      7          1           0        0.914462   -0.797765    1.980986
      8          1           0        3.355363    0.783593   -1.991035
      9          1           0        0.914491    0.797490   -1.981076
     10          6           0       -0.740229   -0.000109   -0.000016
     11          6           0       -1.447379   -0.437502   -1.110991
     12          6           0       -1.447259    0.437322    1.111037
     13          6           0       -2.824033   -0.443666   -1.111944
     14          6           0       -2.823909    0.443539    1.112143
     15          6           0       -3.524910   -0.000034    0.000126
     16          1           0       -0.914614   -0.796709   -1.981454
     17          1           0       -0.914365    0.796519    1.981427
     18          1           0       -3.355477   -0.782802   -1.991269
     19          1           0       -3.355249    0.782652    1.991539
     20          1           0        3.355316   -0.783824    1.991014
     21          6           0       -4.975135   -0.000032    0.000145
     22          6           0       -6.146520    0.565054    0.408043
     23          6           0       -6.146453   -0.565050   -0.408017
     24          7           0       -6.780980    1.491697    1.066857
     25          7           0       -6.780843   -1.491604   -1.067037
     26          6           0       -6.057956    2.591048    1.684578
     27          1           0       -6.154708    2.545100    2.768364
     28          1           0       -5.008879    2.544629    1.410837
     29          1           0       -6.464629    3.537319    1.332266
     30          6           0       -8.228734    1.518275    1.186143
     31          1           0       -8.494477    1.775383    2.209103
     32          1           0       -8.659441    2.259109    0.513350
     33          1           0       -8.642938    0.539771    0.968827
     34          6           0       -6.057730   -2.591089   -1.684422
     35          1           0       -6.153192   -2.544651   -2.768303
     36          1           0       -5.008941   -2.545387   -1.409434
     37          1           0       -6.465326   -3.537274   -1.332961
     38          6           0       -8.228631   -1.518112   -1.186291
     39          1           0       -8.494234   -1.779605   -2.208151
     40          1           0       -8.659838   -2.255827   -0.510389
     41          1           0       -8.642467   -0.538433   -0.973542
     42          6           0        4.975109   -0.000078    0.000026
     43          6           0        6.146534   -0.565080    0.407916
     44          6           0        6.146403    0.565147   -0.407945
     45          7           0        6.781069   -1.491701    1.066705
     46          7           0        6.780732    1.491927   -1.066700
     47          6           0        6.058202   -2.591312    1.684129
     48          1           0        6.154554   -2.545406    2.767953
     49          1           0        5.009205   -2.545245    1.410016
     50          1           0        6.465319   -3.537423    1.331906
     51          6           0        8.228858   -1.518145    1.185797
     52          1           0        8.494704   -1.776946    2.208295
     53          1           0        8.659724   -2.257735    0.511728
     54          1           0        8.642813   -0.539154    0.970202
     55          6           0        6.057561    2.591370   -1.684106
     56          1           0        6.153074    2.544964   -2.767982
     57          1           0        5.008776    2.545628   -1.409122
     58          1           0        6.465122    3.537559   -1.332610
     59          6           0        8.228499    1.518584   -1.185941
     60          1           0        8.494145    1.779106   -2.208049
     61          1           0        8.659520    2.257040   -0.510729
     62          1           0        8.642516    0.539209   -0.972160
 ---------------------------------------------------------------------

 SCF Done:  E(RLC-wHPBE) =  -1227.67392566     A.U. after   14 cycles

 The electronic state is 1-A.
 Alpha  occ. eigenvalues --  -14.34872 -14.34872 -14.34871 -14.34871 -10.27458
 Alpha  occ. eigenvalues --  -10.27458 -10.27421 -10.27421 -10.23650 -10.23650
 Alpha  occ. eigenvalues --  -10.21049 -10.21049 -10.21048 -10.21048 -10.20959
 Alpha  occ. eigenvalues --  -10.20959 -10.20958 -10.20958 -10.20636 -10.20636
 Alpha  occ. eigenvalues --  -10.19247 -10.19233 -10.18544 -10.18544 -10.18543
 Alpha  occ. eigenvalues --  -10.18542 -10.17871 -10.17870 -10.17869 -10.17868
 Alpha  occ. eigenvalues --   -1.23266  -1.23266  -1.20484  -1.20484  -1.15326
 Alpha  occ. eigenvalues --   -1.15322  -1.10379  -1.08718  -1.02604  -0.98461
 Alpha  occ. eigenvalues --   -0.98207  -0.97828  -0.97123  -0.96914  -0.96763
 Alpha  occ. eigenvalues --   -0.96747  -0.95619  -0.95618  -0.94593  -0.94377
 Alpha  occ. eigenvalues --   -0.89615  -0.86181  -0.84403  -0.83777  -0.80093
 Alpha  occ. eigenvalues --   -0.79782  -0.79637  -0.79531  -0.79131  -0.78885
 Alpha  occ. eigenvalues --   -0.75884  -0.74707  -0.74642  -0.74639  -0.73869
 Alpha  occ. eigenvalues --   -0.73633  -0.73128  -0.72296  -0.72292  -0.71906
 Alpha  occ. eigenvalues --   -0.69839  -0.68452  -0.68127  -0.67210  -0.67168
 Alpha  occ. eigenvalues --   -0.66708  -0.66507  -0.66363  -0.66322  -0.66260
 Alpha  occ. eigenvalues --   -0.65999  -0.65133  -0.64892  -0.64868  -0.64716
 Alpha  occ. eigenvalues --   -0.64712  -0.64225  -0.63844  -0.63824  -0.63651
 Alpha  occ. eigenvalues --   -0.63082  -0.62528  -0.62484  -0.61620  -0.61223
 Alpha  occ. eigenvalues --   -0.59824  -0.59135  -0.58002  -0.57555  -0.54996
 Alpha  occ. eigenvalues --   -0.54986  -0.54201  -0.51026  -0.50932  -0.50851
 Alpha  occ. eigenvalues --   -0.47500  -0.45845
 Alpha virt. eigenvalues --   -0.19311  -0.15995  -0.13885  -0.13844  -0.10253
 Alpha virt. eigenvalues --   -0.10252  -0.09892  -0.09195  -0.09178  -0.07844
 Alpha virt. eigenvalues --   -0.06055  -0.05969  -0.05059  -0.04670  -0.04273

 Mulliken charges:
               1
     1  C   -0.093409
     2  C    0.144769
     3  C   -0.150062
     4  C   -0.093412
     5  C    0.016136
     6  C   -0.150036
     7  H    0.159850
     8  H    0.155714
     9  H    0.159836
    10  C    0.016161
    11  C   -0.150030
    12  C   -0.150071
    13  C   -0.093426
    14  C   -0.093397
    15  C    0.144767
    16  H    0.159833
    17  H    0.159850
    18  H    0.155716
    19  H    0.155694
    20  H    0.155692
    21  C   -0.474930
    22  C    0.073109
    23  C    0.073035
    24  N    0.017789
    25  N    0.017851
    26  C   -0.256391
    27  H    0.177719
    28  H    0.152495
    29  H    0.173658
    30  C   -0.258180
    31  H    0.173312
    32  H    0.184626
    33  H    0.146910
    34  C   -0.256730
    35  H    0.177802
    36  H    0.152540
    37  H    0.173757
    38  C   -0.258743
    39  H    0.173407
    40  H    0.184747
    41  H    0.147128
    42  C   -0.474950
    43  C    0.073123
    44  C    0.073064
    45  N    0.017834
    46  N    0.017844
    47  C   -0.256491
    48  H    0.177750
    49  H    0.152497
    50  H    0.173688
    51  C   -0.258396
    52  H    0.173347
    53  H    0.184669
    54  H    0.146991
    55  C   -0.256675
    56  H    0.177795
    57  H    0.152534
    58  H    0.173735
    59  C   -0.258630
    60  H    0.173390
    61  H    0.184722
    62  H    0.147073
 Sum of Mulliken charges =   2.00000

 Dipole moment (field-independent basis, Debye):
    X=             -0.0002    Y=              0.0001    Z=             -0.0004  Tot=              0.0005
 Quadrupole moment (field-independent basis, Debye-Ang):
   XX=            267.1423   YY=           -135.4678   ZZ=           -143.8448
   XY=              0.0040   XZ=              0.0008   YZ=             -0.0014

 Normal termination of Gaussian 16 at Tue Jan 26 11:16:59 2021.
