 Gaussian 16, Revision A.03,
 Gaussian 16:  EM64L-G16RevA.03 25-Dec-2016

 ----------------------------------------------------------------------
 #P LC-wHPBE/TZVP iop(3/107=0328100000, 3/108=0328100000) scf=(conver=6
 ,fermi,ndamp=35,noincfock,novaracc,vshift=500,xqc)
 ----------------------------------------------------------------------

 ----------
 H32 C26 N4
 ----------
 Symbolic Z-matrix:
 Charge =  3 Multiplicity = 2

                         Standard orientation:
 ---------------------------------------------------------------------
 Center     Atomic      Atomic             Coordinates (Angstroms)
 Number     Number       Type             X           Y           Z
 ---------------------------------------------------------------------
      1          6           0        2.823961   -0.444264    1.111805
      2          6           0        3.524911   -0.000100    0.000001
      3          6           0        1.447297   -0.438089    1.110761
      4          6           0        2.823968    0.444049   -1.111840
      5          6           0        0.740218   -0.000107   -0.000031
      6          6           0        1.447325    0.437860   -1.110830
      7          1           0        0.914462   -0.797765    1.980986
      8          1           0        3.355363    0.783593   -1.991035
      9          1           0        0.914491    0.797490   -1.981076
     10          6           0       -0.740229   -0.000109   -0.000016
     11          6           0       -1.447379   -0.437502   -1.110991
     12          6           0       -1.447259    0.437322    1.111037
     13          6           0       -2.824033   -0.443666   -1.111944
     14          6           0       -2.823909    0.443539    1.112143
     15          6           0       -3.524910   -0.000034    0.000126
     16          1           0       -0.914614   -0.796709   -1.981454
     17          1           0       -0.914365    0.796519    1.981427
     18          1           0       -3.355477   -0.782802   -1.991269
     19          1           0       -3.355249    0.782652    1.991539
     20          1           0        3.355316   -0.783824    1.991014
     21          6           0       -4.975135   -0.000032    0.000145
     22          6           0       -6.146520    0.565054    0.408043
     23          6           0       -6.146453   -0.565050   -0.408017
     24          7           0       -6.780980    1.491697    1.066857
     25          7           0       -6.780843   -1.491604   -1.067037
     26          6           0       -6.057956    2.591048    1.684578
     27          1           0       -6.154708    2.545100    2.768364
     28          1           0       -5.008879    2.544629    1.410837
     29          1           0       -6.464629    3.537319    1.332266
     30          6           0       -8.228734    1.518275    1.186143
     31          1           0       -8.494477    1.775383    2.209103
     32          1           0       -8.659441    2.259109    0.513350
     33          1           0       -8.642938    0.539771    0.968827
     34          6           0       -6.057730   -2.591089   -1.684422
     35          1           0       -6.153192   -2.544651   -2.768303
     36          1           0       -5.008941   -2.545387   -1.409434
     37          1           0       -6.465326   -3.537274   -1.332961
     38          6           0       -8.228631   -1.518112   -1.186291
     39          1           0       -8.494234   -1.779605   -2.208151
     40          1           0       -8.659838   -2.255827   -0.510389
     41          1           0       -8.642467   -0.538433   -0.973542
     42          6           0        4.975109   -0.000078    0.000026
     43          6           0        6.146534   -0.565080    0.407916
     44          6           0        6.146403    0.565147   -0.407945
     45          7           0        6.781069   -1.491701    1.066705
     46          7           0        6.780732    1.491927   -1.066700
     47          6           0        6.058202   -2.591312    1.684129
     48          1           0        6.154554   -2.545406    2.767953
     49          1           0        5.009205   -2.545245    1.410016
     50          1           0        6.465319   -3.537423    1.331906
     51          6           0        8.228858   -1.518145    1.185797
     52          1           0        8.494704   -1.776946    2.208295
     53          1           0        8.659724   -2.257735    0.511728
     54          1           0        8.642813   -0.539154    0.970202
     55          6           0        6.057561    2.591370   -1.684106
     56          1           0        6.153074    2.544964   -2.767982
     57          1           0        5.008776    2.545628   -1.409122
     58          1           0        6.465122    3.537559   -1.332610
     59          6           0        8.228499    1.518584   -1.185941
     60          1           0        8.494145    1.779106   -2.208049
     61          1           0        8.659520    2.257040   -0.510729
     62          1           0        8.642516    0.539209   -0.972160
 ---------------------------------------------------------------------

 SCF Done:  E(ULC-wHPBE) =  -1227.41104250     A.U. after   33 cycles
 SCF Done:  E(ULC-wHPBE) =  -1227.41104295     a.u. after    2 cycles

 The electronic state is 2-A.
 Alpha  occ. eigenvalues --  -14.52973 -14.52972 -14.52932 -14.52931 -10.46189
 Alpha  occ. eigenvalues --  -10.46157 -10.46149 -10.46117 -10.42140 -10.42119
 Alpha  occ. eigenvalues --  -10.42108 -10.42086 -10.41167 -10.41140 -10.38675
 Alpha  occ. eigenvalues --  -10.38672 -10.38660 -10.38657 -10.38522 -10.38521
 Alpha  occ. eigenvalues --  -10.38498 -10.38498 -10.37399 -10.37399 -10.37373
 Alpha  occ. eigenvalues --  -10.37373 -10.36918 -10.36917 -10.36892 -10.36890
 Alpha  occ. eigenvalues --   -1.41661  -1.41626  -1.38228  -1.38193  -1.33460
 Alpha  occ. eigenvalues --   -1.33387  -1.31559  -1.29533  -1.23273  -1.18412
 Alpha  occ. eigenvalues --   -1.18273  -1.17614  -1.13310  -1.13181  -1.12743
 Alpha  occ. eigenvalues --   -1.12713  -1.11876  -1.11846  -1.10821  -1.10524
 Alpha  occ. eigenvalues --   -1.08390  -1.05466  -1.03015  -1.02782  -0.98074
 Alpha  occ. eigenvalues --   -0.97607  -0.94678  -0.94647  -0.94534  -0.94045
 Alpha  occ. eigenvalues --   -0.92615  -0.91152  -0.90608  -0.90110  -0.89825
 Alpha  occ. eigenvalues --   -0.89184  -0.88954  -0.87842  -0.87239  -0.87207
 Alpha  occ. eigenvalues --   -0.87126  -0.85861  -0.85489  -0.84103  -0.83781
 Alpha  occ. eigenvalues --   -0.82933  -0.82866  -0.82119  -0.80995  -0.80941
 Alpha  occ. eigenvalues --   -0.80162  -0.79951  -0.79855  -0.79610  -0.78517
 Alpha  occ. eigenvalues --   -0.78327  -0.78174  -0.78148  -0.78048  -0.77604
 Alpha  occ. eigenvalues --   -0.77451  -0.77406  -0.77395  -0.76339  -0.75861
 Alpha  occ. eigenvalues --   -0.75498  -0.75125  -0.74461  -0.74353  -0.70841
 Alpha  occ. eigenvalues --   -0.69076  -0.69042  -0.66906  -0.66687  -0.66574
 Alpha  occ. eigenvalues --   -0.61367  -0.60395
 Alpha virt. eigenvalues --   -0.30317  -0.26005  -0.24482  -0.24459  -0.19015
 Alpha virt. eigenvalues --   -0.18230  -0.18197  -0.17358  -0.16595  -0.16548
 Alpha virt. eigenvalues --   -0.13183  -0.13094  -0.12632  -0.12135  -0.11221

  Beta  occ. eigenvalues --  -14.52773 -14.52772 -14.52734 -14.52733 -10.46197
  Beta  occ. eigenvalues --  -10.46164 -10.46157 -10.46125 -10.42181 -10.42146
  Beta  occ. eigenvalues --  -10.41862 -10.41833 -10.41025 -10.40998 -10.38601
  Beta  occ. eigenvalues --  -10.38597 -10.38581 -10.38576 -10.38547 -10.38547
  Beta  occ. eigenvalues --  -10.38529 -10.38529 -10.37406 -10.37405 -10.37379
  Beta  occ. eigenvalues --  -10.37379 -10.36925 -10.36924 -10.36898 -10.36897
  Beta  occ. eigenvalues --   -1.41461  -1.41427  -1.37942  -1.37909  -1.33168
  Beta  occ. eigenvalues --   -1.33101  -1.31167  -1.29163  -1.22740  -1.18315
  Beta  occ. eigenvalues --   -1.17576  -1.17556  -1.13271  -1.13118  -1.12698
  Beta  occ. eigenvalues --   -1.12669  -1.11844  -1.11814  -1.10794  -1.10455
  Beta  occ. eigenvalues --   -1.08301  -1.05265  -1.02853  -1.02501  -0.97965
  Beta  occ. eigenvalues --   -0.97497  -0.94546  -0.94542  -0.94389  -0.93917
  Beta  occ. eigenvalues --   -0.92522  -0.90945  -0.90256  -0.89844  -0.89728
  Beta  occ. eigenvalues --   -0.89099  -0.88757  -0.87698  -0.86836  -0.86764
  Beta  occ. eigenvalues --   -0.86737  -0.85688  -0.85369  -0.84058  -0.83484
  Beta  occ. eigenvalues --   -0.82475  -0.82182  -0.82005  -0.80876  -0.80808
  Beta  occ. eigenvalues --   -0.79910  -0.79814  -0.79553  -0.78937  -0.78352
  Beta  occ. eigenvalues --   -0.78126  -0.78055  -0.78029  -0.77867  -0.77551
  Beta  occ. eigenvalues --   -0.77423  -0.77328  -0.76702  -0.76230  -0.75827
  Beta  occ. eigenvalues --   -0.75426  -0.75028  -0.74322  -0.74280  -0.68265
  Beta  occ. eigenvalues --   -0.68114  -0.68090  -0.66630  -0.66590  -0.62618
  Beta  occ. eigenvalues --   -0.57717
  Beta virt. eigenvalues --   -0.45746  -0.29651  -0.25004  -0.23722  -0.23433
  Beta virt. eigenvalues --   -0.18323  -0.17611  -0.17583  -0.16552  -0.16499
  Beta virt. eigenvalues --   -0.16376  -0.13141  -0.13068  -0.12626  -0.12084

 Mulliken charges and spin densities:
               1          2
     1  C   -0.091250  -0.061235
     2  C    0.170394   0.199869
     3  C   -0.131894   0.082308
     4  C   -0.091258  -0.061224
     5  C    0.018953   0.095896
     6  C   -0.131863   0.082283
     7  H    0.210067  -0.004430
     8  H    0.207080   0.001941
     9  H    0.210054  -0.004430
    10  C    0.019042   0.094339
    11  C   -0.131874   0.082806
    12  C   -0.131914   0.082837
    13  C   -0.091368  -0.061662
    14  C   -0.091343  -0.061679
    15  C    0.170219   0.199461
    16  H    0.209944  -0.004449
    17  H    0.209960  -0.004450
    18  H    0.207034   0.001963
    19  H    0.207012   0.001964
    20  H    0.207057   0.001941
    21  C   -0.453270  -0.052771
    22  C    0.082122   0.003389
    23  C    0.082107   0.003413
    24  N    0.026026   0.097401
    25  N    0.026080   0.097416
    26  C   -0.253944  -0.005598
    27  H    0.201793   0.005341
    28  H    0.140130   0.000145
    29  H    0.196846   0.004752
    30  C   -0.258437  -0.005274
    31  H    0.192649   0.003913
    32  H    0.208713   0.005327
    33  H    0.151921   0.000491
    34  C   -0.254310  -0.005595
    35  H    0.201869   0.005344
    36  H    0.140194   0.000145
    37  H    0.196939   0.004746
    38  C   -0.259055  -0.005280
    39  H    0.192716   0.003883
    40  H    0.208848   0.005341
    41  H    0.152195   0.000507
    42  C   -0.453134  -0.052771
    43  C    0.082173   0.003236
    44  C    0.082133   0.003238
    45  N    0.026312   0.098415
    46  N    0.026320   0.098413
    47  C   -0.254069  -0.005651
    48  H    0.201937   0.005398
    49  H    0.140205   0.000146
    50  H    0.196979   0.004799
    51  C   -0.258695  -0.005333
    52  H    0.192779   0.003942
    53  H    0.208876   0.005392
    54  H    0.152062   0.000502
    55  C   -0.254273  -0.005649
    56  H    0.201980   0.005401
    57  H    0.140253   0.000146
    58  H    0.197021   0.004792
    59  C   -0.258952  -0.005335
    60  H    0.192811   0.003931
    61  H    0.208932   0.005397
    62  H    0.152166   0.000508
 Sum of Mulliken charges =   3.00000   1.00000

 Dipole moment (field-independent basis, Debye):
    X=              0.0629    Y=              0.0001    Z=             -0.0002  Tot=              0.0629
 Quadrupole moment (field-independent basis, Debye-Ang):
   XX=            409.4375   YY=           -119.7329   ZZ=           -129.7565
   XY=              0.0021   XZ=             -0.0002   YZ=             -0.0251

 Normal termination of Gaussian 16 at Tue Jan 26 05:24:33 2021.
