 Gaussian 16, Revision A.03,
 Gaussian 16:  EM64L-G16RevA.03 25-Dec-2016

 ----------------------------------------------------------------------
 #P LC-wHPBE/TZVP iop(3/107=0156200000, 3/108=0156200000) scf=(conver=6
 ,fermi,ndamp=35,noincfock,novaracc,vshift=500,xqc)
 ----------------------------------------------------------------------

 ----------
 H32 C26 N4
 ----------
 Symbolic Z-matrix:
 Charge =  3 Multiplicity = 2

                         Standard orientation:
 ---------------------------------------------------------------------
 Center     Atomic      Atomic             Coordinates (Angstroms)
 Number     Number       Type             X           Y           Z
 ---------------------------------------------------------------------
      1          6           0        2.823961   -0.444264    1.111805
      2          6           0        3.524911   -0.000100    0.000001
      3          6           0        1.447297   -0.438089    1.110761
      4          6           0        2.823968    0.444049   -1.111840
      5          6           0        0.740218   -0.000107   -0.000031
      6          6           0        1.447325    0.437860   -1.110830
      7          1           0        0.914462   -0.797765    1.980986
      8          1           0        3.355363    0.783593   -1.991035
      9          1           0        0.914491    0.797490   -1.981076
     10          6           0       -0.740229   -0.000109   -0.000016
     11          6           0       -1.447379   -0.437502   -1.110991
     12          6           0       -1.447259    0.437322    1.111037
     13          6           0       -2.824033   -0.443666   -1.111944
     14          6           0       -2.823909    0.443539    1.112143
     15          6           0       -3.524910   -0.000034    0.000126
     16          1           0       -0.914614   -0.796709   -1.981454
     17          1           0       -0.914365    0.796519    1.981427
     18          1           0       -3.355477   -0.782802   -1.991269
     19          1           0       -3.355249    0.782652    1.991539
     20          1           0        3.355316   -0.783824    1.991014
     21          6           0       -4.975135   -0.000032    0.000145
     22          6           0       -6.146520    0.565054    0.408043
     23          6           0       -6.146453   -0.565050   -0.408017
     24          7           0       -6.780980    1.491697    1.066857
     25          7           0       -6.780843   -1.491604   -1.067037
     26          6           0       -6.057956    2.591048    1.684578
     27          1           0       -6.154708    2.545100    2.768364
     28          1           0       -5.008879    2.544629    1.410837
     29          1           0       -6.464629    3.537319    1.332266
     30          6           0       -8.228734    1.518275    1.186143
     31          1           0       -8.494477    1.775383    2.209103
     32          1           0       -8.659441    2.259109    0.513350
     33          1           0       -8.642938    0.539771    0.968827
     34          6           0       -6.057730   -2.591089   -1.684422
     35          1           0       -6.153192   -2.544651   -2.768303
     36          1           0       -5.008941   -2.545387   -1.409434
     37          1           0       -6.465326   -3.537274   -1.332961
     38          6           0       -8.228631   -1.518112   -1.186291
     39          1           0       -8.494234   -1.779605   -2.208151
     40          1           0       -8.659838   -2.255827   -0.510389
     41          1           0       -8.642467   -0.538433   -0.973542
     42          6           0        4.975109   -0.000078    0.000026
     43          6           0        6.146534   -0.565080    0.407916
     44          6           0        6.146403    0.565147   -0.407945
     45          7           0        6.781069   -1.491701    1.066705
     46          7           0        6.780732    1.491927   -1.066700
     47          6           0        6.058202   -2.591312    1.684129
     48          1           0        6.154554   -2.545406    2.767953
     49          1           0        5.009205   -2.545245    1.410016
     50          1           0        6.465319   -3.537423    1.331906
     51          6           0        8.228858   -1.518145    1.185797
     52          1           0        8.494704   -1.776946    2.208295
     53          1           0        8.659724   -2.257735    0.511728
     54          1           0        8.642813   -0.539154    0.970202
     55          6           0        6.057561    2.591370   -1.684106
     56          1           0        6.153074    2.544964   -2.767982
     57          1           0        5.008776    2.545628   -1.409122
     58          1           0        6.465122    3.537559   -1.332610
     59          6           0        8.228499    1.518584   -1.185941
     60          1           0        8.494145    1.779106   -2.208049
     61          1           0        8.659520    2.257040   -0.510729
     62          1           0        8.642516    0.539209   -0.972160
 ---------------------------------------------------------------------

 SCF Done:  E(ULC-wHPBE) =  -1227.13888120     A.U. after   30 cycles

 The electronic state is 2-A.
 Alpha  occ. eigenvalues --  -14.44160 -14.44160 -14.44159 -14.44158 -10.35877
 Alpha  occ. eigenvalues --  -10.35875 -10.35840 -10.35838 -10.32517 -10.32513
 Alpha  occ. eigenvalues --  -10.30959 -10.30957 -10.29780 -10.29765 -10.28065
 Alpha  occ. eigenvalues --  -10.28064 -10.28063 -10.28063 -10.27924 -10.27923
 Alpha  occ. eigenvalues --  -10.27923 -10.27922 -10.27733 -10.27732 -10.27732
 Alpha  occ. eigenvalues --  -10.27731 -10.27641 -10.27640 -10.27639 -10.27638
 Alpha  occ. eigenvalues --   -1.31704  -1.31702  -1.28814  -1.28812  -1.23959
 Alpha  occ. eigenvalues --   -1.23950  -1.20156  -1.18367  -1.12425  -1.07843
 Alpha  occ. eigenvalues --   -1.07821  -1.07173  -1.04447  -1.04333  -1.04052
 Alpha  occ. eigenvalues --   -1.04045  -1.03352  -1.03350  -1.02411  -1.02243
 Alpha  occ. eigenvalues --   -0.99080  -0.95859  -0.93992  -0.93451  -0.89261
 Alpha  occ. eigenvalues --   -0.88898  -0.87324  -0.87229  -0.87114  -0.86852
 Alpha  occ. eigenvalues --   -0.84786  -0.83270  -0.83011  -0.82811  -0.82520
 Alpha  occ. eigenvalues --   -0.81979  -0.81849  -0.80968  -0.80210  -0.80208
 Alpha  occ. eigenvalues --   -0.79585  -0.78006  -0.77611  -0.76298  -0.76064
 Alpha  occ. eigenvalues --   -0.75824  -0.75563  -0.74993  -0.74476  -0.74380
 Alpha  occ. eigenvalues --   -0.73636  -0.73508  -0.73096  -0.72884  -0.72290
 Alpha  occ. eigenvalues --   -0.72086  -0.71972  -0.71970  -0.71899  -0.71436
 Alpha  occ. eigenvalues --   -0.71416  -0.70950  -0.70852  -0.69993  -0.69900
 Alpha  occ. eigenvalues --   -0.69053  -0.68950  -0.67924  -0.67590  -0.64828
 Alpha  occ. eigenvalues --   -0.63712  -0.63707  -0.61491  -0.61275  -0.61213
 Alpha  occ. eigenvalues --   -0.57410  -0.56307
 Alpha virt. eigenvalues --   -0.32147  -0.28739  -0.26891  -0.26862  -0.22797
 Alpha virt. eigenvalues --   -0.22423  -0.22420  -0.20962  -0.19958  -0.19941
 Alpha virt. eigenvalues --   -0.16148  -0.16000  -0.15827  -0.15307  -0.14679

  Beta  occ. eigenvalues --  -14.43940 -14.43939 -14.43938 -14.43938 -10.35893
  Beta  occ. eigenvalues --  -10.35891 -10.35856 -10.35854 -10.32490 -10.32487
  Beta  occ. eigenvalues --  -10.30805 -10.30803 -10.29662 -10.29647 -10.28069
  Beta  occ. eigenvalues --  -10.28068 -10.28067 -10.28067 -10.27924 -10.27923
  Beta  occ. eigenvalues --  -10.27923 -10.27922 -10.27738 -10.27737 -10.27736
  Beta  occ. eigenvalues --  -10.27735 -10.27589 -10.27587 -10.27587 -10.27586
  Beta  occ. eigenvalues --   -1.31470  -1.31468  -1.28500  -1.28498  -1.23684
  Beta  occ. eigenvalues --   -1.23675  -1.19901  -1.18141  -1.12111  -1.07756
  Beta  occ. eigenvalues --   -1.07500  -1.07099  -1.04392  -1.04267  -1.03998
  Beta  occ. eigenvalues --   -1.03991  -1.03298  -1.03297  -1.02340  -1.02157
  Beta  occ. eigenvalues --   -0.99001  -0.95705  -0.93852  -0.93277  -0.89171
  Beta  occ. eigenvalues --   -0.88806  -0.87200  -0.87102  -0.87002  -0.86733
  Beta  occ. eigenvalues --   -0.84701  -0.83023  -0.82723  -0.82669  -0.82339
  Beta  occ. eigenvalues --   -0.81893  -0.81737  -0.80829  -0.79822  -0.79820
  Beta  occ. eigenvalues --   -0.79398  -0.77888  -0.77519  -0.76264  -0.75844
  Beta  occ. eigenvalues --   -0.75539  -0.75427  -0.74908  -0.74390  -0.74282
  Beta  occ. eigenvalues --   -0.73596  -0.73466  -0.72726  -0.72686  -0.72153
  Beta  occ. eigenvalues --   -0.71946  -0.71869  -0.71866  -0.71772  -0.71403
  Beta  occ. eigenvalues --   -0.71387  -0.70871  -0.70484  -0.69961  -0.69871
  Beta  occ. eigenvalues --   -0.68987  -0.68852  -0.67867  -0.67480  -0.63858
  Beta  occ. eigenvalues --   -0.62958  -0.62955  -0.61109  -0.61061  -0.59486
  Beta  occ. eigenvalues --   -0.54070
  Beta virt. eigenvalues --   -0.45662  -0.31568  -0.28027  -0.26553  -0.26417
  Beta virt. eigenvalues --   -0.22265  -0.22004  -0.22002  -0.20402  -0.19899
  Beta virt. eigenvalues --   -0.19883  -0.16115  -0.15963  -0.15797  -0.15269

 Mulliken charges and spin densities:
               1          2
     1  C   -0.078742  -0.006265
     2  C    0.171087   0.111850
     3  C   -0.124253   0.035767
     4  C   -0.078746  -0.006262
     5  C    0.027239   0.082316
     6  C   -0.124224   0.035752
     7  H    0.183191  -0.002167
     8  H    0.178980  -0.000069
     9  H    0.183177  -0.002167
    10  C    0.027273   0.082269
    11  C   -0.124222   0.035763
    12  C   -0.124266   0.035783
    13  C   -0.078759  -0.006269
    14  C   -0.078732  -0.006283
    15  C    0.171064   0.111824
    16  H    0.183169  -0.002167
    17  H    0.183185  -0.002168
    18  H    0.178980  -0.000068
    19  H    0.178960  -0.000068
    20  H    0.178958  -0.000069
    21  C   -0.475965   0.009751
    22  C    0.084106  -0.009032
    23  C    0.084039  -0.009021
    24  N    0.054117   0.111160
    25  N    0.054219   0.111186
    26  C   -0.262142  -0.003738
    27  H    0.203565   0.007053
    28  H    0.150480  -0.000025
    29  H    0.200227   0.006161
    30  C   -0.266405  -0.003789
    31  H    0.196757   0.004974
    32  H    0.210704   0.007403
    33  H    0.158333   0.000575
    34  C   -0.262503  -0.003734
    35  H    0.203646   0.007059
    36  H    0.150534  -0.000024
    37  H    0.200330   0.006154
    38  C   -0.266999  -0.003794
    39  H    0.196828   0.004933
    40  H    0.210834   0.007422
    41  H    0.158575   0.000596
    42  C   -0.475993   0.009755
    43  C    0.084121  -0.009037
    44  C    0.084055  -0.009036
    45  N    0.054211   0.111245
    46  N    0.054237   0.111246
    47  C   -0.262251  -0.003739
    48  H    0.203604   0.007060
    49  H    0.150493  -0.000025
    50  H    0.200267   0.006164
    51  C   -0.266634  -0.003794
    52  H    0.196791   0.004962
    53  H    0.210758   0.007415
    54  H    0.158425   0.000583
    55  C   -0.262449  -0.003737
    56  H    0.203647   0.007064
    57  H    0.150533  -0.000024
    58  H    0.200312   0.006155
    59  C   -0.266882  -0.003795
    60  H    0.196825   0.004947
    61  H    0.210814   0.007421
    62  H    0.158516   0.000591
 Sum of Mulliken charges =   3.00000   1.00000

 Dipole moment (field-independent basis, Debye):
    X=              0.0044    Y=              0.0001    Z=             -0.0001  Tot=              0.0044
 Quadrupole moment (field-independent basis, Debye-Ang):
   XX=            429.5528   YY=           -118.0157   ZZ=           -130.1353
   XY=              0.0021   XZ=             -0.0003   YZ=             -0.0032

 Normal termination of Gaussian 16 at Tue Jan 26 06:19:15 2021.
