 Gaussian 16, Revision A.03,
 Gaussian 16:  EM64L-G16RevA.03 25-Dec-2016

 ----------------------------------------------------------------------
 #P LC-wHPBE/TZVP iop(3/107=0199600000, 3/108=0199600000) scf=(conver=6
 ,fermi,ndamp=35,noincfock,novaracc,vshift=500,xqc)
 ----------------------------------------------------------------------

 ----------
 H32 C26 N4
 ----------
 Symbolic Z-matrix:
 Charge =  2 Multiplicity = 1

                         Standard orientation:
 ---------------------------------------------------------------------
 Center     Atomic      Atomic             Coordinates (Angstroms)
 Number     Number       Type             X           Y           Z
 ---------------------------------------------------------------------
      1          6           0        2.823961   -0.444264    1.111805
      2          6           0        3.524911   -0.000100    0.000001
      3          6           0        1.447297   -0.438089    1.110761
      4          6           0        2.823968    0.444049   -1.111840
      5          6           0        0.740218   -0.000107   -0.000031
      6          6           0        1.447325    0.437860   -1.110830
      7          1           0        0.914462   -0.797765    1.980986
      8          1           0        3.355363    0.783593   -1.991035
      9          1           0        0.914491    0.797490   -1.981076
     10          6           0       -0.740229   -0.000109   -0.000016
     11          6           0       -1.447379   -0.437502   -1.110991
     12          6           0       -1.447259    0.437322    1.111037
     13          6           0       -2.824033   -0.443666   -1.111944
     14          6           0       -2.823909    0.443539    1.112143
     15          6           0       -3.524910   -0.000034    0.000126
     16          1           0       -0.914614   -0.796709   -1.981454
     17          1           0       -0.914365    0.796519    1.981427
     18          1           0       -3.355477   -0.782802   -1.991269
     19          1           0       -3.355249    0.782652    1.991539
     20          1           0        3.355316   -0.783824    1.991014
     21          6           0       -4.975135   -0.000032    0.000145
     22          6           0       -6.146520    0.565054    0.408043
     23          6           0       -6.146453   -0.565050   -0.408017
     24          7           0       -6.780980    1.491697    1.066857
     25          7           0       -6.780843   -1.491604   -1.067037
     26          6           0       -6.057956    2.591048    1.684578
     27          1           0       -6.154708    2.545100    2.768364
     28          1           0       -5.008879    2.544629    1.410837
     29          1           0       -6.464629    3.537319    1.332266
     30          6           0       -8.228734    1.518275    1.186143
     31          1           0       -8.494477    1.775383    2.209103
     32          1           0       -8.659441    2.259109    0.513350
     33          1           0       -8.642938    0.539771    0.968827
     34          6           0       -6.057730   -2.591089   -1.684422
     35          1           0       -6.153192   -2.544651   -2.768303
     36          1           0       -5.008941   -2.545387   -1.409434
     37          1           0       -6.465326   -3.537274   -1.332961
     38          6           0       -8.228631   -1.518112   -1.186291
     39          1           0       -8.494234   -1.779605   -2.208151
     40          1           0       -8.659838   -2.255827   -0.510389
     41          1           0       -8.642467   -0.538433   -0.973542
     42          6           0        4.975109   -0.000078    0.000026
     43          6           0        6.146534   -0.565080    0.407916
     44          6           0        6.146403    0.565147   -0.407945
     45          7           0        6.781069   -1.491701    1.066705
     46          7           0        6.780732    1.491927   -1.066700
     47          6           0        6.058202   -2.591312    1.684129
     48          1           0        6.154554   -2.545406    2.767953
     49          1           0        5.009205   -2.545245    1.410016
     50          1           0        6.465319   -3.537423    1.331906
     51          6           0        8.228858   -1.518145    1.185797
     52          1           0        8.494704   -1.776946    2.208295
     53          1           0        8.659724   -2.257735    0.511728
     54          1           0        8.642813   -0.539154    0.970202
     55          6           0        6.057561    2.591370   -1.684106
     56          1           0        6.153074    2.544964   -2.767982
     57          1           0        5.008776    2.545628   -1.409122
     58          1           0        6.465122    3.537559   -1.332610
     59          6           0        8.228499    1.518584   -1.185941
     60          1           0        8.494145    1.779106   -2.208049
     61          1           0        8.659520    2.257040   -0.510729
     62          1           0        8.642516    0.539209   -0.972160
 ---------------------------------------------------------------------

 SCF Done:  E(RLC-wHPBE) =  -1227.67335650     A.U. after   14 cycles

 The electronic state is 1-A.
 Alpha  occ. eigenvalues --  -14.34856 -14.34855 -14.34854 -14.34854 -10.27440
 Alpha  occ. eigenvalues --  -10.27439 -10.27402 -10.27402 -10.23632 -10.23632
 Alpha  occ. eigenvalues --  -10.21032 -10.21032 -10.21031 -10.21031 -10.20942
 Alpha  occ. eigenvalues --  -10.20942 -10.20942 -10.20942 -10.20619 -10.20619
 Alpha  occ. eigenvalues --  -10.19230 -10.19216 -10.18527 -10.18527 -10.18526
 Alpha  occ. eigenvalues --  -10.18525 -10.17854 -10.17853 -10.17852 -10.17851
 Alpha  occ. eigenvalues --   -1.23247  -1.23247  -1.20467  -1.20466  -1.15308
 Alpha  occ. eigenvalues --   -1.15304  -1.10361  -1.08700  -1.02587  -0.98443
 Alpha  occ. eigenvalues --   -0.98190  -0.97811  -0.97107  -0.96897  -0.96746
 Alpha  occ. eigenvalues --   -0.96730  -0.95603  -0.95602  -0.94577  -0.94361
 Alpha  occ. eigenvalues --   -0.89598  -0.86165  -0.84387  -0.83762  -0.80078
 Alpha  occ. eigenvalues --   -0.79767  -0.79622  -0.79517  -0.79117  -0.78871
 Alpha  occ. eigenvalues --   -0.75870  -0.74692  -0.74628  -0.74624  -0.73855
 Alpha  occ. eigenvalues --   -0.73620  -0.73115  -0.72282  -0.72278  -0.71892
 Alpha  occ. eigenvalues --   -0.69825  -0.68439  -0.68114  -0.67197  -0.67155
 Alpha  occ. eigenvalues --   -0.66695  -0.66494  -0.66350  -0.66309  -0.66247
 Alpha  occ. eigenvalues --   -0.65987  -0.65121  -0.64879  -0.64855  -0.64703
 Alpha  occ. eigenvalues --   -0.64700  -0.64212  -0.63832  -0.63812  -0.63639
 Alpha  occ. eigenvalues --   -0.63069  -0.62516  -0.62471  -0.61608  -0.61210
 Alpha  occ. eigenvalues --   -0.59812  -0.59123  -0.57990  -0.57543  -0.54984
 Alpha  occ. eigenvalues --   -0.54974  -0.54191  -0.51017  -0.50922  -0.50842
 Alpha  occ. eigenvalues --   -0.47492  -0.45837
 Alpha virt. eigenvalues --   -0.19317  -0.16002  -0.13893  -0.13851  -0.10261
 Alpha virt. eigenvalues --   -0.10260  -0.09900  -0.09202  -0.09185  -0.07852
 Alpha virt. eigenvalues --   -0.06062  -0.05976  -0.05067  -0.04677  -0.04281

 Mulliken charges:
               1
     1  C   -0.093398
     2  C    0.144810
     3  C   -0.150031
     4  C   -0.093402
     5  C    0.016157
     6  C   -0.150005
     7  H    0.159814
     8  H    0.155679
     9  H    0.159800
    10  C    0.016181
    11  C   -0.149998
    12  C   -0.150039
    13  C   -0.093415
    14  C   -0.093386
    15  C    0.144809
    16  H    0.159797
    17  H    0.159814
    18  H    0.155680
    19  H    0.155658
    20  H    0.155656
    21  C   -0.474989
    22  C    0.073121
    23  C    0.073047
    24  N    0.017820
    25  N    0.017882
    26  C   -0.256428
    27  H    0.177724
    28  H    0.152509
    29  H    0.173667
    30  C   -0.258216
    31  H    0.173320
    32  H    0.184631
    33  H    0.146925
    34  C   -0.256766
    35  H    0.177808
    36  H    0.152554
    37  H    0.173766
    38  C   -0.258779
    39  H    0.173416
    40  H    0.184753
    41  H    0.147143
    42  C   -0.475008
    43  C    0.073135
    44  C    0.073076
    45  N    0.017865
    46  N    0.017875
    47  C   -0.256528
    48  H    0.177755
    49  H    0.152512
    50  H    0.173697
    51  C   -0.258432
    52  H    0.173356
    53  H    0.184674
    54  H    0.147006
    55  C   -0.256712
    56  H    0.177800
    57  H    0.152549
    58  H    0.173744
    59  C   -0.258667
    60  H    0.173398
    61  H    0.184727
    62  H    0.147088
 Sum of Mulliken charges =   2.00000

 Dipole moment (field-independent basis, Debye):
    X=             -0.0002    Y=              0.0001    Z=             -0.0004  Tot=              0.0005
 Quadrupole moment (field-independent basis, Debye-Ang):
   XX=            267.1436   YY=           -135.4679   ZZ=           -143.8462
   XY=              0.0040   XZ=              0.0008   YZ=             -0.0014

 Normal termination of Gaussian 16 at Tue Jan 26 07:31:50 2021.
