 Gaussian 16, Revision A.03,
 Gaussian 16:  EM64L-G16RevA.03 25-Dec-2016

 ----------------------------------------------------------------------
 #P LC-wHPBE/TZVP iop(3/107=0197300000, 3/108=0197300000) scf=(conver=6
 ,fermi,ndamp=35,noincfock,novaracc,vshift=500,xqc)
 ----------------------------------------------------------------------

 ----------
 H32 C26 N4
 ----------
 Symbolic Z-matrix:
 Charge =  2 Multiplicity = 1

                         Standard orientation:
 ---------------------------------------------------------------------
 Center     Atomic      Atomic             Coordinates (Angstroms)
 Number     Number       Type             X           Y           Z
 ---------------------------------------------------------------------
      1          6           0        2.823961   -0.444264    1.111805
      2          6           0        3.524911   -0.000100    0.000001
      3          6           0        1.447297   -0.438089    1.110761
      4          6           0        2.823968    0.444049   -1.111840
      5          6           0        0.740218   -0.000107   -0.000031
      6          6           0        1.447325    0.437860   -1.110830
      7          1           0        0.914462   -0.797765    1.980986
      8          1           0        3.355363    0.783593   -1.991035
      9          1           0        0.914491    0.797490   -1.981076
     10          6           0       -0.740229   -0.000109   -0.000016
     11          6           0       -1.447379   -0.437502   -1.110991
     12          6           0       -1.447259    0.437322    1.111037
     13          6           0       -2.824033   -0.443666   -1.111944
     14          6           0       -2.823909    0.443539    1.112143
     15          6           0       -3.524910   -0.000034    0.000126
     16          1           0       -0.914614   -0.796709   -1.981454
     17          1           0       -0.914365    0.796519    1.981427
     18          1           0       -3.355477   -0.782802   -1.991269
     19          1           0       -3.355249    0.782652    1.991539
     20          1           0        3.355316   -0.783824    1.991014
     21          6           0       -4.975135   -0.000032    0.000145
     22          6           0       -6.146520    0.565054    0.408043
     23          6           0       -6.146453   -0.565050   -0.408017
     24          7           0       -6.780980    1.491697    1.066857
     25          7           0       -6.780843   -1.491604   -1.067037
     26          6           0       -6.057956    2.591048    1.684578
     27          1           0       -6.154708    2.545100    2.768364
     28          1           0       -5.008879    2.544629    1.410837
     29          1           0       -6.464629    3.537319    1.332266
     30          6           0       -8.228734    1.518275    1.186143
     31          1           0       -8.494477    1.775383    2.209103
     32          1           0       -8.659441    2.259109    0.513350
     33          1           0       -8.642938    0.539771    0.968827
     34          6           0       -6.057730   -2.591089   -1.684422
     35          1           0       -6.153192   -2.544651   -2.768303
     36          1           0       -5.008941   -2.545387   -1.409434
     37          1           0       -6.465326   -3.537274   -1.332961
     38          6           0       -8.228631   -1.518112   -1.186291
     39          1           0       -8.494234   -1.779605   -2.208151
     40          1           0       -8.659838   -2.255827   -0.510389
     41          1           0       -8.642467   -0.538433   -0.973542
     42          6           0        4.975109   -0.000078    0.000026
     43          6           0        6.146534   -0.565080    0.407916
     44          6           0        6.146403    0.565147   -0.407945
     45          7           0        6.781069   -1.491701    1.066705
     46          7           0        6.780732    1.491927   -1.066700
     47          6           0        6.058202   -2.591312    1.684129
     48          1           0        6.154554   -2.545406    2.767953
     49          1           0        5.009205   -2.545245    1.410016
     50          1           0        6.465319   -3.537423    1.331906
     51          6           0        8.228858   -1.518145    1.185797
     52          1           0        8.494704   -1.776946    2.208295
     53          1           0        8.659724   -2.257735    0.511728
     54          1           0        8.642813   -0.539154    0.970202
     55          6           0        6.057561    2.591370   -1.684106
     56          1           0        6.153074    2.544964   -2.767982
     57          1           0        5.008776    2.545628   -1.409122
     58          1           0        6.465122    3.537559   -1.332610
     59          6           0        8.228499    1.518584   -1.185941
     60          1           0        8.494145    1.779106   -2.208049
     61          1           0        8.659520    2.257040   -0.510729
     62          1           0        8.642516    0.539209   -0.972160
 ---------------------------------------------------------------------

 SCF Done:  E(RLC-wHPBE) =  -1227.66898785     A.U. after   14 cycles

 The electronic state is 1-A.
 Alpha  occ. eigenvalues --  -14.34730 -14.34730 -14.34729 -14.34729 -10.27298
 Alpha  occ. eigenvalues --  -10.27298 -10.27261 -10.27261 -10.23497 -10.23496
 Alpha  occ. eigenvalues --  -10.20904 -10.20904 -10.20903 -10.20903 -10.20814
 Alpha  occ. eigenvalues --  -10.20814 -10.20813 -10.20813 -10.20488 -10.20488
 Alpha  occ. eigenvalues --  -10.19099 -10.19085 -10.18396 -10.18396 -10.18395
 Alpha  occ. eigenvalues --  -10.18395 -10.17724 -10.17723 -10.17723 -10.17722
 Alpha  occ. eigenvalues --   -1.23108  -1.23108  -1.20332  -1.20332  -1.15173
 Alpha  occ. eigenvalues --   -1.15169  -1.10222  -1.08562  -1.02452  -0.98311
 Alpha  occ. eigenvalues --   -0.98059  -0.97680  -0.96978  -0.96768  -0.96618
 Alpha  occ. eigenvalues --   -0.96602  -0.95478  -0.95477  -0.94454  -0.94238
 Alpha  occ. eigenvalues --   -0.89475  -0.86043  -0.84269  -0.83643  -0.79963
 Alpha  occ. eigenvalues --   -0.79653  -0.79512  -0.79406  -0.79006  -0.78761
 Alpha  occ. eigenvalues --   -0.75761  -0.74576  -0.74523  -0.74508  -0.73751
 Alpha  occ. eigenvalues --   -0.73517  -0.73010  -0.72173  -0.72169  -0.71788
 Alpha  occ. eigenvalues --   -0.69722  -0.68336  -0.68011  -0.67092  -0.67052
 Alpha  occ. eigenvalues --   -0.66594  -0.66395  -0.66250  -0.66209  -0.66148
 Alpha  occ. eigenvalues --   -0.65888  -0.65024  -0.64782  -0.64758  -0.64606
 Alpha  occ. eigenvalues --   -0.64602  -0.64114  -0.63737  -0.63717  -0.63541
 Alpha  occ. eigenvalues --   -0.62968  -0.62422  -0.62378  -0.61516  -0.61112
 Alpha  occ. eigenvalues --   -0.59722  -0.59033  -0.57902  -0.57455  -0.54897
 Alpha  occ. eigenvalues --   -0.54887  -0.54113  -0.50946  -0.50851  -0.50771
 Alpha  occ. eigenvalues --   -0.47428  -0.45778
 Alpha virt. eigenvalues --   -0.19362  -0.16054  -0.13950  -0.13908  -0.10323
 Alpha virt. eigenvalues --   -0.10322  -0.09964  -0.09257  -0.09240  -0.07918
 Alpha virt. eigenvalues --   -0.06115  -0.06029  -0.05121  -0.04733  -0.04339

 Mulliken charges:
               1
     1  C   -0.093320
     2  C    0.145134
     3  C   -0.149792
     4  C   -0.093323
     5  C    0.016308
     6  C   -0.149766
     7  H    0.159545
     8  H    0.155408
     9  H    0.159531
    10  C    0.016332
    11  C   -0.149760
    12  C   -0.149801
    13  C   -0.093336
    14  C   -0.093307
    15  C    0.145132
    16  H    0.159528
    17  H    0.159545
    18  H    0.155410
    19  H    0.155388
    20  H    0.155386
    21  C   -0.475430
    22  C    0.073212
    23  C    0.073138
    24  N    0.018047
    25  N    0.018109
    26  C   -0.256712
    27  H    0.177769
    28  H    0.152624
    29  H    0.173737
    30  C   -0.258501
    31  H    0.173386
    32  H    0.184673
    33  H    0.147043
    34  C   -0.257050
    35  H    0.177853
    36  H    0.152669
    37  H    0.173836
    38  C   -0.259064
    39  H    0.173482
    40  H    0.184794
    41  H    0.147261
    42  C   -0.475449
    43  C    0.073226
    44  C    0.073167
    45  N    0.018092
    46  N    0.018102
    47  C   -0.256812
    48  H    0.177800
    49  H    0.152627
    50  H    0.173767
    51  C   -0.258717
    52  H    0.173422
    53  H    0.184715
    54  H    0.147124
    55  C   -0.256996
    56  H    0.177845
    57  H    0.152664
    58  H    0.173814
    59  C   -0.258951
    60  H    0.173465
    61  H    0.184768
    62  H    0.147206
 Sum of Mulliken charges =   2.00000

 Dipole moment (field-independent basis, Debye):
    X=             -0.0002    Y=              0.0001    Z=             -0.0004  Tot=              0.0005
 Quadrupole moment (field-independent basis, Debye-Ang):
   XX=            267.1536   YY=           -135.4680   ZZ=           -143.8571
   XY=              0.0040   XZ=              0.0008   YZ=             -0.0014

 Normal termination of Gaussian 16 at Tue Jan 26 10:20:44 2021.
