 Gaussian 16, Revision A.03,
 Gaussian 16:  EM64L-G16RevA.03 25-Dec-2016

 ----------------------------------------------------------------------
 #P LC-wHPBE/TZVP iop(3/107=0200200000, 3/108=0200200000) scf=(conver=6
 ,fermi,ndamp=35,noincfock,novaracc,vshift=500,xqc)
 ----------------------------------------------------------------------

 ----------
 H32 C26 N4
 ----------
 Symbolic Z-matrix:
 Charge =  3 Multiplicity = 2

                         Standard orientation:
 ---------------------------------------------------------------------
 Center     Atomic      Atomic             Coordinates (Angstroms)
 Number     Number       Type             X           Y           Z
 ---------------------------------------------------------------------
      1          6           0        2.823961   -0.444264    1.111805
      2          6           0        3.524911   -0.000100    0.000001
      3          6           0        1.447297   -0.438089    1.110761
      4          6           0        2.823968    0.444049   -1.111840
      5          6           0        0.740218   -0.000107   -0.000031
      6          6           0        1.447325    0.437860   -1.110830
      7          1           0        0.914462   -0.797765    1.980986
      8          1           0        3.355363    0.783593   -1.991035
      9          1           0        0.914491    0.797490   -1.981076
     10          6           0       -0.740229   -0.000109   -0.000016
     11          6           0       -1.447379   -0.437502   -1.110991
     12          6           0       -1.447259    0.437322    1.111037
     13          6           0       -2.824033   -0.443666   -1.111944
     14          6           0       -2.823909    0.443539    1.112143
     15          6           0       -3.524910   -0.000034    0.000126
     16          1           0       -0.914614   -0.796709   -1.981454
     17          1           0       -0.914365    0.796519    1.981427
     18          1           0       -3.355477   -0.782802   -1.991269
     19          1           0       -3.355249    0.782652    1.991539
     20          1           0        3.355316   -0.783824    1.991014
     21          6           0       -4.975135   -0.000032    0.000145
     22          6           0       -6.146520    0.565054    0.408043
     23          6           0       -6.146453   -0.565050   -0.408017
     24          7           0       -6.780980    1.491697    1.066857
     25          7           0       -6.780843   -1.491604   -1.067037
     26          6           0       -6.057956    2.591048    1.684578
     27          1           0       -6.154708    2.545100    2.768364
     28          1           0       -5.008879    2.544629    1.410837
     29          1           0       -6.464629    3.537319    1.332266
     30          6           0       -8.228734    1.518275    1.186143
     31          1           0       -8.494477    1.775383    2.209103
     32          1           0       -8.659441    2.259109    0.513350
     33          1           0       -8.642938    0.539771    0.968827
     34          6           0       -6.057730   -2.591089   -1.684422
     35          1           0       -6.153192   -2.544651   -2.768303
     36          1           0       -5.008941   -2.545387   -1.409434
     37          1           0       -6.465326   -3.537274   -1.332961
     38          6           0       -8.228631   -1.518112   -1.186291
     39          1           0       -8.494234   -1.779605   -2.208151
     40          1           0       -8.659838   -2.255827   -0.510389
     41          1           0       -8.642467   -0.538433   -0.973542
     42          6           0        4.975109   -0.000078    0.000026
     43          6           0        6.146534   -0.565080    0.407916
     44          6           0        6.146403    0.565147   -0.407945
     45          7           0        6.781069   -1.491701    1.066705
     46          7           0        6.780732    1.491927   -1.066700
     47          6           0        6.058202   -2.591312    1.684129
     48          1           0        6.154554   -2.545406    2.767953
     49          1           0        5.009205   -2.545245    1.410016
     50          1           0        6.465319   -3.537423    1.331906
     51          6           0        8.228858   -1.518145    1.185797
     52          1           0        8.494704   -1.776946    2.208295
     53          1           0        8.659724   -2.257735    0.511728
     54          1           0        8.642813   -0.539154    0.970202
     55          6           0        6.057561    2.591370   -1.684106
     56          1           0        6.153074    2.544964   -2.767982
     57          1           0        5.008776    2.545628   -1.409122
     58          1           0        6.465122    3.537559   -1.332610
     59          6           0        8.228499    1.518584   -1.185941
     60          1           0        8.494145    1.779106   -2.208049
     61          1           0        8.659520    2.257040   -0.510729
     62          1           0        8.642516    0.539209   -0.972160
 ---------------------------------------------------------------------

 SCF Done:  E(ULC-wHPBE) =  -1227.21599481     A.U. after   31 cycles

 The electronic state is 2-A.
 Alpha  occ. eigenvalues --  -14.46459 -14.46458 -14.46456 -14.46453 -10.38502
 Alpha  occ. eigenvalues --  -10.38499 -10.38465 -10.38461 -10.34972 -10.34968
 Alpha  occ. eigenvalues --  -10.33824 -10.33821 -10.32697 -10.32682 -10.30653
 Alpha  occ. eigenvalues --  -10.30652 -10.30651 -10.30650 -10.30462 -10.30461
 Alpha  occ. eigenvalues --  -10.30461 -10.30460 -10.30460 -10.30459 -10.30458
 Alpha  occ. eigenvalues --  -10.30457 -10.30088 -10.30087 -10.30085 -10.30084
 Alpha  occ. eigenvalues --   -1.34283  -1.34279  -1.31286  -1.31283  -1.26477
 Alpha  occ. eigenvalues --   -1.26464  -1.23135  -1.21296  -1.15313  -1.10671
 Alpha  occ. eigenvalues --   -1.10631  -1.09977  -1.06869  -1.06754  -1.06431
 Alpha  occ. eigenvalues --   -1.06425  -1.05712  -1.05709  -1.04738  -1.04550
 Alpha  occ. eigenvalues --   -1.01674  -0.98531  -0.96524  -0.96057  -0.91769
 Alpha  occ. eigenvalues --   -0.91384  -0.89462  -0.89357  -0.89290  -0.88964
 Alpha  occ. eigenvalues --   -0.87080  -0.85556  -0.85235  -0.84886  -0.84727
 Alpha  occ. eigenvalues --   -0.84110  -0.83906  -0.83039  -0.82287  -0.82283
 Alpha  occ. eigenvalues --   -0.81839  -0.80308  -0.79911  -0.78573  -0.78324
 Alpha  occ. eigenvalues --   -0.77937  -0.77735  -0.77098  -0.76438  -0.76369
 Alpha  occ. eigenvalues --   -0.75554  -0.75439  -0.75310  -0.74929  -0.74189
 Alpha  occ. eigenvalues --   -0.73980  -0.73846  -0.73843  -0.73774  -0.73270
 Alpha  occ. eigenvalues --   -0.73259  -0.72915  -0.72895  -0.71851  -0.71705
 Alpha  occ. eigenvalues --   -0.70972  -0.70897  -0.69870  -0.69639  -0.66735
 Alpha  occ. eigenvalues --   -0.65401  -0.65395  -0.63197  -0.63057  -0.62973
 Alpha  occ. eigenvalues --   -0.58714  -0.57644
 Alpha virt. eigenvalues --   -0.31340  -0.27697  -0.25889  -0.25872  -0.21464
 Alpha virt. eigenvalues --   -0.21000  -0.20996  -0.19657  -0.18701  -0.18694
 Alpha virt. eigenvalues --   -0.14984  -0.14902  -0.14627  -0.14119  -0.13346

  Beta  occ. eigenvalues --  -14.46243 -14.46242 -14.46240 -14.46238 -10.38518
  Beta  occ. eigenvalues --  -10.38514 -10.38481 -10.38477 -10.34965 -10.34961
  Beta  occ. eigenvalues --  -10.33645 -10.33642 -10.32570 -10.32555 -10.30663
  Beta  occ. eigenvalues --  -10.30661 -10.30660 -10.30659 -10.30466 -10.30465
  Beta  occ. eigenvalues --  -10.30463 -10.30462 -10.30400 -10.30399 -10.30399
  Beta  occ. eigenvalues --  -10.30397 -10.30093 -10.30092 -10.30090 -10.30089
  Beta  occ. eigenvalues --   -1.34061  -1.34057  -1.30982  -1.30978  -1.26200
  Beta  occ. eigenvalues --   -1.26187  -1.22850  -1.21041  -1.14951  -1.10581
  Beta  occ. eigenvalues --   -1.10237  -1.09903  -1.06817  -1.06688  -1.06380
  Beta  occ. eigenvalues --   -1.06374  -1.05664  -1.05661  -1.04676  -1.04468
  Beta  occ. eigenvalues --   -1.01597  -0.98363  -0.96376  -0.95862  -0.91676
  Beta  occ. eigenvalues --   -0.91290  -0.89337  -0.89227  -0.89178  -0.88843
  Beta  occ. eigenvalues --   -0.86992  -0.85331  -0.84910  -0.84798  -0.84533
  Beta  occ. eigenvalues --   -0.84026  -0.83788  -0.82900  -0.81890  -0.81886
  Beta  occ. eigenvalues --   -0.81621  -0.80176  -0.79812  -0.78537  -0.78094
  Beta  occ. eigenvalues --   -0.77596  -0.77549  -0.77006  -0.76351  -0.76259
  Beta  occ. eigenvalues --   -0.75514  -0.75398  -0.74870  -0.74622  -0.74052
  Beta  occ. eigenvalues --   -0.73821  -0.73737  -0.73733  -0.73632  -0.73239
  Beta  occ. eigenvalues --   -0.73230  -0.72830  -0.72439  -0.71813  -0.71676
  Beta  occ. eigenvalues --   -0.70869  -0.70824  -0.69809  -0.69517  -0.65373
  Beta  occ. eigenvalues --   -0.64550  -0.64547  -0.62911  -0.62855  -0.60509
  Beta  occ. eigenvalues --   -0.55043
  Beta virt. eigenvalues --   -0.45724  -0.30770  -0.26887  -0.25463  -0.25288
  Beta virt. eigenvalues --   -0.20862  -0.20520  -0.20517  -0.18997  -0.18646
  Beta virt. eigenvalues --   -0.18640  -0.14954  -0.14865  -0.14604  -0.14080

 Mulliken charges and spin densities:
               1          2
     1  C   -0.079041  -0.015384
     2  C    0.165896   0.130738
     3  C   -0.126088   0.043901
     4  C   -0.079045  -0.015379
     5  C    0.026889   0.088537
     6  C   -0.126061   0.043884
     7  H    0.188301  -0.002606
     8  H    0.184255   0.000261
     9  H    0.188287  -0.002606
    10  C    0.026928   0.088445
    11  C   -0.126059   0.043910
    12  C   -0.126100   0.043932
    13  C   -0.079062  -0.015401
    14  C   -0.079034  -0.015415
    15  C    0.165867   0.130697
    16  H    0.188275  -0.002607
    17  H    0.188291  -0.002607
    18  H    0.184254   0.000262
    19  H    0.184233   0.000263
    20  H    0.184233   0.000261
    21  C   -0.473471  -0.006402
    22  C    0.082627  -0.006863
    23  C    0.082577  -0.006848
    24  N    0.051638   0.108434
    25  N    0.051701   0.108456
    26  C   -0.256386  -0.004337
    27  H    0.201848   0.006584
    28  H    0.146675   0.000001
    29  H    0.198284   0.005791
    30  C   -0.261063  -0.004323
    31  H    0.194700   0.004711
    32  H    0.208885   0.006805
    33  H    0.155798   0.000552
    34  C   -0.256744  -0.004333
    35  H    0.201929   0.006589
    36  H    0.146732   0.000002
    37  H    0.198386   0.005784
    38  C   -0.261660  -0.004328
    39  H    0.194773   0.004673
    40  H    0.209016   0.006822
    41  H    0.156050   0.000571
    42  C   -0.473483  -0.006391
    43  C    0.082655  -0.006874
    44  C    0.082596  -0.006873
    45  N    0.051717   0.108558
    46  N    0.051723   0.108558
    47  C   -0.256494  -0.004340
    48  H    0.201891   0.006593
    49  H    0.146693   0.000002
    50  H    0.198328   0.005796
    51  C   -0.261292  -0.004330
    52  H    0.194740   0.004701
    53  H    0.208944   0.006819
    54  H    0.155895   0.000559
    55  C   -0.256691  -0.004338
    56  H    0.201935   0.006597
    57  H    0.146735   0.000003
    58  H    0.198373   0.005788
    59  C   -0.261541  -0.004331
    60  H    0.194774   0.004688
    61  H    0.209001   0.006824
    62  H    0.155990   0.000567
 Sum of Mulliken charges =   3.00000   1.00000

 Dipole moment (field-independent basis, Debye):
    X=              0.0069    Y=              0.0001    Z=             -0.0001  Tot=              0.0069
 Quadrupole moment (field-independent basis, Debye-Ang):
   XX=            424.2118   YY=           -118.4879   ZZ=           -130.0728
   XY=              0.0017   XZ=             -0.0004   YZ=             -0.0042

 Normal termination of Gaussian 16 at Tue Jan 26 12:54:48 2021.
