 Gaussian 16, Revision A.03,
 Gaussian 16:  EM64L-G16RevA.03 25-Dec-2016

 ----------------------------------------------------------------------
 #P LC-wHPBE/TZVP iop(3/107=0156200000, 3/108=0156200000) scf=(conver=6
 ,fermi,ndamp=35,noincfock,novaracc,vshift=500,xqc)
 ----------------------------------------------------------------------

 ----------
 H32 C26 N4
 ----------
 Symbolic Z-matrix:
 Charge =  2 Multiplicity = 1

                         Standard orientation:
 ---------------------------------------------------------------------
 Center     Atomic      Atomic             Coordinates (Angstroms)
 Number     Number       Type             X           Y           Z
 ---------------------------------------------------------------------
      1          6           0        2.823961   -0.444264    1.111805
      2          6           0        3.524911   -0.000100    0.000001
      3          6           0        1.447297   -0.438089    1.110761
      4          6           0        2.823968    0.444049   -1.111840
      5          6           0        0.740218   -0.000107   -0.000031
      6          6           0        1.447325    0.437860   -1.110830
      7          1           0        0.914462   -0.797765    1.980986
      8          1           0        3.355363    0.783593   -1.991035
      9          1           0        0.914491    0.797490   -1.981076
     10          6           0       -0.740229   -0.000109   -0.000016
     11          6           0       -1.447379   -0.437502   -1.110991
     12          6           0       -1.447259    0.437322    1.111037
     13          6           0       -2.824033   -0.443666   -1.111944
     14          6           0       -2.823909    0.443539    1.112143
     15          6           0       -3.524910   -0.000034    0.000126
     16          1           0       -0.914614   -0.796709   -1.981454
     17          1           0       -0.914365    0.796519    1.981427
     18          1           0       -3.355477   -0.782802   -1.991269
     19          1           0       -3.355249    0.782652    1.991539
     20          1           0        3.355316   -0.783824    1.991014
     21          6           0       -4.975135   -0.000032    0.000145
     22          6           0       -6.146520    0.565054    0.408043
     23          6           0       -6.146453   -0.565050   -0.408017
     24          7           0       -6.780980    1.491697    1.066857
     25          7           0       -6.780843   -1.491604   -1.067037
     26          6           0       -6.057956    2.591048    1.684578
     27          1           0       -6.154708    2.545100    2.768364
     28          1           0       -5.008879    2.544629    1.410837
     29          1           0       -6.464629    3.537319    1.332266
     30          6           0       -8.228734    1.518275    1.186143
     31          1           0       -8.494477    1.775383    2.209103
     32          1           0       -8.659441    2.259109    0.513350
     33          1           0       -8.642938    0.539771    0.968827
     34          6           0       -6.057730   -2.591089   -1.684422
     35          1           0       -6.153192   -2.544651   -2.768303
     36          1           0       -5.008941   -2.545387   -1.409434
     37          1           0       -6.465326   -3.537274   -1.332961
     38          6           0       -8.228631   -1.518112   -1.186291
     39          1           0       -8.494234   -1.779605   -2.208151
     40          1           0       -8.659838   -2.255827   -0.510389
     41          1           0       -8.642467   -0.538433   -0.973542
     42          6           0        4.975109   -0.000078    0.000026
     43          6           0        6.146534   -0.565080    0.407916
     44          6           0        6.146403    0.565147   -0.407945
     45          7           0        6.781069   -1.491701    1.066705
     46          7           0        6.780732    1.491927   -1.066700
     47          6           0        6.058202   -2.591312    1.684129
     48          1           0        6.154554   -2.545406    2.767953
     49          1           0        5.009205   -2.545245    1.410016
     50          1           0        6.465319   -3.537423    1.331906
     51          6           0        8.228858   -1.518145    1.185797
     52          1           0        8.494704   -1.776946    2.208295
     53          1           0        8.659724   -2.257735    0.511728
     54          1           0        8.642813   -0.539154    0.970202
     55          6           0        6.057561    2.591370   -1.684106
     56          1           0        6.153074    2.544964   -2.767982
     57          1           0        5.008776    2.545628   -1.409122
     58          1           0        6.465122    3.537559   -1.332610
     59          6           0        8.228499    1.518584   -1.185941
     60          1           0        8.494145    1.779106   -2.208049
     61          1           0        8.659520    2.257040   -0.510729
     62          1           0        8.642516    0.539209   -0.972160
 ---------------------------------------------------------------------

 SCF Done:  E(RLC-wHPBE) =  -1227.59052158     A.U. after   14 cycles

 The electronic state is 1-A.
 Alpha  occ. eigenvalues --  -14.32479 -14.32478 -14.32477 -14.32477 -10.24783
 Alpha  occ. eigenvalues --  -10.24783 -10.24746 -10.24746 -10.21074 -10.21073
 Alpha  occ. eigenvalues --  -10.18609 -10.18608 -10.18608 -10.18608 -10.18517
 Alpha  occ. eigenvalues --  -10.18517 -10.18517 -10.18517 -10.18145 -10.18145
 Alpha  occ. eigenvalues --  -10.16763 -10.16749 -10.16057 -10.16057 -10.16056
 Alpha  occ. eigenvalues --  -10.16056 -10.15409 -10.15408 -10.15407 -10.15406
 Alpha  occ. eigenvalues --   -1.20617  -1.20617  -1.17924  -1.17924  -1.12750
 Alpha  occ. eigenvalues --   -1.12746  -1.07744  -1.06097  -1.00027  -0.95929
 Alpha  occ. eigenvalues --   -0.95685  -0.95310  -0.94643  -0.94438  -0.94301
 Alpha  occ. eigenvalues --   -0.94285  -0.93193  -0.93192  -0.92200  -0.91993
 Alpha  occ. eigenvalues --   -0.87217  -0.83813  -0.82088  -0.81464  -0.77831
 Alpha  occ. eigenvalues --   -0.77542  -0.77456  -0.77359  -0.76943  -0.76706
 Alpha  occ. eigenvalues --   -0.73722  -0.72549  -0.72427  -0.72365  -0.71804
 Alpha  occ. eigenvalues --   -0.71586  -0.71042  -0.70145  -0.70143  -0.69840
 Alpha  occ. eigenvalues --   -0.67793  -0.66414  -0.66087  -0.65121  -0.65100
 Alpha  occ. eigenvalues --   -0.64701  -0.64521  -0.64360  -0.64331  -0.64282
 Alpha  occ. eigenvalues --   -0.64029  -0.63206  -0.62941  -0.62919  -0.62770
 Alpha  occ. eigenvalues --   -0.62767  -0.62265  -0.61948  -0.61929  -0.61715
 Alpha  occ. eigenvalues --   -0.61054  -0.60663  -0.60615  -0.59767  -0.59238
 Alpha  occ. eigenvalues --   -0.58008  -0.57321  -0.56232  -0.55788  -0.53219
 Alpha  occ. eigenvalues --   -0.53210  -0.52579  -0.49547  -0.49426  -0.49367
 Alpha  occ. eigenvalues --   -0.46173  -0.44606
 Alpha virt. eigenvalues --   -0.20304  -0.17127  -0.15128  -0.15076  -0.11570
 Alpha virt. eigenvalues --   -0.11570  -0.11257  -0.10397  -0.10377  -0.09250
 Alpha virt. eigenvalues --   -0.07220  -0.07132  -0.06243  -0.05880  -0.05531

 Mulliken charges:
               1
     1  C   -0.092899
     2  C    0.152070
     3  C   -0.145779
     4  C   -0.092904
     5  C    0.017899
     6  C   -0.145751
     7  H    0.155741
     8  H    0.151607
     9  H    0.155727
    10  C    0.017923
    11  C   -0.145744
    12  C   -0.145788
    13  C   -0.092917
    14  C   -0.092888
    15  C    0.152068
    16  H    0.155724
    17  H    0.155741
    18  H    0.151609
    19  H    0.151586
    20  H    0.151585
    21  C   -0.481145
    22  C    0.074754
    23  C    0.074669
    24  N    0.020410
    25  N    0.020487
    26  C   -0.262933
    27  H    0.179015
    28  H    0.154949
    29  H    0.175339
    30  C   -0.264589
    31  H    0.174888
    32  H    0.185866
    33  H    0.149347
    34  C   -0.263273
    35  H    0.179099
    36  H    0.154992
    37  H    0.175439
    38  C   -0.265145
    39  H    0.174984
    40  H    0.185987
    41  H    0.149554
    42  C   -0.481164
    43  C    0.074764
    44  C    0.074698
    45  N    0.020460
    46  N    0.020477
    47  C   -0.263034
    48  H    0.179046
    49  H    0.154951
    50  H    0.175370
    51  C   -0.264803
    52  H    0.174924
    53  H    0.185908
    54  H    0.149425
    55  C   -0.263218
    56  H    0.179091
    57  H    0.154986
    58  H    0.175417
    59  C   -0.265035
    60  H    0.174967
    61  H    0.185961
    62  H    0.149503
 Sum of Mulliken charges =   2.00000

 Dipole moment (field-independent basis, Debye):
    X=             -0.0002    Y=              0.0001    Z=             -0.0004  Tot=              0.0005
 Quadrupole moment (field-independent basis, Debye-Ang):
   XX=            267.3684   YY=           -135.4666   ZZ=           -144.0366
   XY=              0.0040   XZ=              0.0008   YZ=             -0.0014

 Normal termination of Gaussian 16 at Tue Jan 26 05:39:22 2021.
