 Gaussian 16, Revision A.03,
 Gaussian 16:  EM64L-G16RevA.03 25-Dec-2016

 ----------------------------------------------------------------------
 #P LC-wHPBE/TZVP iop(3/107=0201400000, 3/108=0201400000) scf=(conver=6
 ,fermi,ndamp=35,noincfock,novaracc,vshift=500,xqc)
 ----------------------------------------------------------------------

 ----------
 H32 C26 N4
 ----------
 Symbolic Z-matrix:
 Charge =  2 Multiplicity = 1

                         Standard orientation:
 ---------------------------------------------------------------------
 Center     Atomic      Atomic             Coordinates (Angstroms)
 Number     Number       Type             X           Y           Z
 ---------------------------------------------------------------------
      1          6           0        2.823961   -0.444264    1.111805
      2          6           0        3.524911   -0.000100    0.000001
      3          6           0        1.447297   -0.438089    1.110761
      4          6           0        2.823968    0.444049   -1.111840
      5          6           0        0.740218   -0.000107   -0.000031
      6          6           0        1.447325    0.437860   -1.110830
      7          1           0        0.914462   -0.797765    1.980986
      8          1           0        3.355363    0.783593   -1.991035
      9          1           0        0.914491    0.797490   -1.981076
     10          6           0       -0.740229   -0.000109   -0.000016
     11          6           0       -1.447379   -0.437502   -1.110991
     12          6           0       -1.447259    0.437322    1.111037
     13          6           0       -2.824033   -0.443666   -1.111944
     14          6           0       -2.823909    0.443539    1.112143
     15          6           0       -3.524910   -0.000034    0.000126
     16          1           0       -0.914614   -0.796709   -1.981454
     17          1           0       -0.914365    0.796519    1.981427
     18          1           0       -3.355477   -0.782802   -1.991269
     19          1           0       -3.355249    0.782652    1.991539
     20          1           0        3.355316   -0.783824    1.991014
     21          6           0       -4.975135   -0.000032    0.000145
     22          6           0       -6.146520    0.565054    0.408043
     23          6           0       -6.146453   -0.565050   -0.408017
     24          7           0       -6.780980    1.491697    1.066857
     25          7           0       -6.780843   -1.491604   -1.067037
     26          6           0       -6.057956    2.591048    1.684578
     27          1           0       -6.154708    2.545100    2.768364
     28          1           0       -5.008879    2.544629    1.410837
     29          1           0       -6.464629    3.537319    1.332266
     30          6           0       -8.228734    1.518275    1.186143
     31          1           0       -8.494477    1.775383    2.209103
     32          1           0       -8.659441    2.259109    0.513350
     33          1           0       -8.642938    0.539771    0.968827
     34          6           0       -6.057730   -2.591089   -1.684422
     35          1           0       -6.153192   -2.544651   -2.768303
     36          1           0       -5.008941   -2.545387   -1.409434
     37          1           0       -6.465326   -3.537274   -1.332961
     38          6           0       -8.228631   -1.518112   -1.186291
     39          1           0       -8.494234   -1.779605   -2.208151
     40          1           0       -8.659838   -2.255827   -0.510389
     41          1           0       -8.642467   -0.538433   -0.973542
     42          6           0        4.975109   -0.000078    0.000026
     43          6           0        6.146534   -0.565080    0.407916
     44          6           0        6.146403    0.565147   -0.407945
     45          7           0        6.781069   -1.491701    1.066705
     46          7           0        6.780732    1.491927   -1.066700
     47          6           0        6.058202   -2.591312    1.684129
     48          1           0        6.154554   -2.545406    2.767953
     49          1           0        5.009205   -2.545245    1.410016
     50          1           0        6.465319   -3.537423    1.331906
     51          6           0        8.228858   -1.518145    1.185797
     52          1           0        8.494704   -1.776946    2.208295
     53          1           0        8.659724   -2.257735    0.511728
     54          1           0        8.642813   -0.539154    0.970202
     55          6           0        6.057561    2.591370   -1.684106
     56          1           0        6.153074    2.544964   -2.767982
     57          1           0        5.008776    2.545628   -1.409122
     58          1           0        6.465122    3.537559   -1.332610
     59          6           0        8.228499    1.518584   -1.185941
     60          1           0        8.494145    1.779106   -2.208049
     61          1           0        8.659520    2.257040   -0.510729
     62          1           0        8.642516    0.539209   -0.972160
 ---------------------------------------------------------------------

 SCF Done:  E(RLC-wHPBE) =  -1227.67676905     A.U. after   14 cycles

 The electronic state is 1-A.
 Alpha  occ. eigenvalues --  -14.34954 -14.34953 -14.34952 -14.34952 -10.27550
 Alpha  occ. eigenvalues --  -10.27550 -10.27513 -10.27513 -10.23738 -10.23738
 Alpha  occ. eigenvalues --  -10.21133 -10.21132 -10.21131 -10.21131 -10.21042
 Alpha  occ. eigenvalues --  -10.21042 -10.21042 -10.21042 -10.20722 -10.20722
 Alpha  occ. eigenvalues --  -10.19332 -10.19318 -10.18629 -10.18629 -10.18628
 Alpha  occ. eigenvalues --  -10.18628 -10.17955 -10.17954 -10.17954 -10.17953
 Alpha  occ. eigenvalues --   -1.23357  -1.23357  -1.20572  -1.20572  -1.15413
 Alpha  occ. eigenvalues --   -1.15410  -1.10470  -1.08808  -1.02692  -0.98547
 Alpha  occ. eigenvalues --   -0.98293  -0.97914  -0.97207  -0.96997  -0.96846
 Alpha  occ. eigenvalues --   -0.96830  -0.95701  -0.95700  -0.94674  -0.94457
 Alpha  occ. eigenvalues --   -0.89695  -0.86260  -0.84480  -0.83854  -0.80168
 Alpha  occ. eigenvalues --   -0.79856  -0.79709  -0.79603  -0.79204  -0.78957
 Alpha  occ. eigenvalues --   -0.75955  -0.74783  -0.74714  -0.74710  -0.73936
 Alpha  occ. eigenvalues --   -0.73700  -0.73197  -0.72366  -0.72363  -0.71973
 Alpha  occ. eigenvalues --   -0.69905  -0.68519  -0.68194  -0.67278  -0.67235
 Alpha  occ. eigenvalues --   -0.66774  -0.66572  -0.66429  -0.66386  -0.66324
 Alpha  occ. eigenvalues --   -0.66064  -0.65196  -0.64955  -0.64931  -0.64779
 Alpha  occ. eigenvalues --   -0.64776  -0.64288  -0.63906  -0.63885  -0.63714
 Alpha  occ. eigenvalues --   -0.63147  -0.62588  -0.62544  -0.61680  -0.61287
 Alpha  occ. eigenvalues --   -0.59883  -0.59194  -0.58059  -0.57611  -0.55052
 Alpha  occ. eigenvalues --   -0.55042  -0.54251  -0.51072  -0.50978  -0.50897
 Alpha  occ. eigenvalues --   -0.47541  -0.45883
 Alpha virt. eigenvalues --   -0.19282  -0.15961  -0.13849  -0.13807  -0.10212
 Alpha virt. eigenvalues --   -0.10212  -0.09850  -0.09159  -0.09142  -0.07801
 Alpha virt. eigenvalues --   -0.06021  -0.05935  -0.05024  -0.04634  -0.04235

 Mulliken charges:
               1
     1  C   -0.093464
     2  C    0.144563
     3  C   -0.150218
     4  C   -0.093467
     5  C    0.016034
     6  C   -0.150192
     7  H    0.160029
     8  H    0.155894
     9  H    0.160015
    10  C    0.016058
    11  C   -0.150186
    12  C   -0.150227
    13  C   -0.093481
    14  C   -0.093452
    15  C    0.144562
    16  H    0.160012
    17  H    0.160029
    18  H    0.155896
    19  H    0.155874
    20  H    0.155872
    21  C   -0.474636
    22  C    0.073049
    23  C    0.072976
    24  N    0.017635
    25  N    0.017696
    26  C   -0.256211
    27  H    0.177691
    28  H    0.152421
    29  H    0.173614
    30  C   -0.257999
    31  H    0.173270
    32  H    0.184601
    33  H    0.146834
    34  C   -0.256549
    35  H    0.177775
    36  H    0.152466
    37  H    0.173712
    38  C   -0.258562
    39  H    0.173365
    40  H    0.184722
    41  H    0.147053
    42  C   -0.474655
    43  C    0.073063
    44  C    0.073005
    45  N    0.017680
    46  N    0.017690
    47  C   -0.256311
    48  H    0.177722
    49  H    0.152424
    50  H    0.173644
    51  C   -0.258215
    52  H    0.173305
    53  H    0.184644
    54  H    0.146915
    55  C   -0.256495
    56  H    0.177767
    57  H    0.152460
    58  H    0.173691
    59  C   -0.258449
    60  H    0.173348
    61  H    0.184697
    62  H    0.146997
 Sum of Mulliken charges =   2.00000

 Dipole moment (field-independent basis, Debye):
    X=             -0.0002    Y=              0.0001    Z=             -0.0004  Tot=              0.0005
 Quadrupole moment (field-independent basis, Debye-Ang):
   XX=            267.1360   YY=           -135.4677   ZZ=           -143.8376
   XY=              0.0040   XZ=              0.0008   YZ=             -0.0014

 Normal termination of Gaussian 16 at Tue Jan 26 09:24:20 2021.
