 Gaussian 16, Revision A.03,
 Gaussian 16:  EM64L-G16RevA.03 25-Dec-2016

 ----------------------------------------------------------------------
 #P LC-wHPBE/TZVP iop(3/107=0186800000, 3/108=0186800000) scf=(conver=6
 ,fermi,ndamp=35,noincfock,novaracc,vshift=500,xqc)
 ----------------------------------------------------------------------

 ----------
 H19 C24 N1
 ----------
 Symbolic Z-matrix:
 Charge =  0 Multiplicity = 1

                         Standard orientation:
 ---------------------------------------------------------------------
 Center     Atomic      Atomic             Coordinates (Angstroms)
 Number     Number       Type             X           Y           Z
 ---------------------------------------------------------------------
      1          6           0       -6.129184    1.201496    0.030856
      2          6           0       -6.830271    0.000001   -0.000182
      3          6           0       -4.738958    1.200713    0.032197
      4          6           0       -6.129235   -1.201473   -0.031153
      5          6           0       -4.021751   -0.000032   -0.000031
      6          6           0       -4.738962   -1.200719   -0.032361
      7          1           0       -7.919539    0.000045   -0.000190
      8          1           0       -4.198073    2.145454    0.081149
      9          1           0       -6.668779   -2.147537   -0.063412
     10          1           0       -4.198148   -2.145504   -0.081256
     11          6           0       -2.536892   -0.000014    0.000063
     12          6           0       -1.813363   -0.924286    0.760077
     13          6           0       -1.813258    0.924290   -0.759786
     14          6           0       -0.426027   -0.922473    0.771159
     15          6           0       -0.425899    0.922498   -0.770636
     16          6           0        0.288344    0.000018    0.000311
     17          1           0       -2.347573   -1.638662    1.386050
     18          1           0       -2.347350    1.638674   -1.385851
     19          1           0        0.115370   -1.638494    1.387158
     20          1           0        0.115571    1.638578   -1.386504
     21          1           0       -6.668762    2.147543    0.063006
     22          7           0        1.704382   -0.000003    0.000499
     23          6           0        2.414266    1.227770   -0.004035
     24          6           0        3.559402    1.382015   -0.792108
     25          6           0        1.979956    2.301413    0.780170
     26          6           0        4.257371    2.583383   -0.786193
     27          6           0        2.673527    3.505213    0.765830
     28          6           0        3.817854    3.653503   -0.012423
     29          1           0        3.900046    0.551242   -1.407814
     30          1           0        1.092486    2.185578    1.400082
     31          1           0        5.147916    2.686607   -1.405370
     32          1           0        2.321511    4.331764    1.382280
     33          1           0        4.363183    4.595952   -0.015664
     34          6           0        2.414241   -1.227791    0.004406
     35          6           0        3.559682   -1.382189    0.792032
     36          6           0        1.979686   -2.301249   -0.779869
     37          6           0        4.257673   -2.583532    0.785597
     38          6           0        2.673287   -3.505060   -0.766028
     39          6           0        3.817885   -3.653507    0.011769
     40          1           0        3.900521   -0.551523    1.407763
     41          1           0        1.092008   -2.185299   -1.399468
     42          1           0        5.148466   -2.686887    1.404399
     43          1           0        2.321010   -4.331477   -1.382521
     44          1           0        4.363223   -4.595951    0.014691
 ---------------------------------------------------------------------

 SCF Done:  E(RLC-wHPBE) =  -980.107372210     A.U. after   14 cycles

 The electronic state is 1-A.
 Alpha  occ. eigenvalues --  -14.12648 -10.03577 -10.03576 -10.03556 -10.00437
 Alpha  occ. eigenvalues --  -10.00149  -9.99541  -9.99541  -9.99537  -9.99537
 Alpha  occ. eigenvalues --   -9.99529  -9.99526  -9.99359  -9.99355  -9.99303
 Alpha  occ. eigenvalues --   -9.99302  -9.99272  -9.99271  -9.99264  -9.99264
 Alpha  occ. eigenvalues --   -9.99262  -9.99262  -9.99229  -9.99075  -9.99075
 Alpha  occ. eigenvalues --   -0.99981  -0.90486  -0.89484  -0.88878  -0.87463
 Alpha  occ. eigenvalues --   -0.81815  -0.80110  -0.78975  -0.78875  -0.78534
 Alpha  occ. eigenvalues --   -0.78207  -0.77521  -0.74461  -0.68263  -0.67860
 Alpha  occ. eigenvalues --   -0.66161  -0.65390  -0.65066  -0.63927  -0.63459
 Alpha  occ. eigenvalues --   -0.61837  -0.59174  -0.59029  -0.57553  -0.54869
 Alpha  occ. eigenvalues --   -0.53487  -0.52643  -0.52513  -0.51101  -0.50534
 Alpha  occ. eigenvalues --   -0.49627  -0.49381  -0.49170  -0.48492  -0.48247
 Alpha  occ. eigenvalues --   -0.47739  -0.47532  -0.47391  -0.47000  -0.44268
 Alpha  occ. eigenvalues --   -0.43965  -0.43842  -0.43603  -0.43083  -0.41727
 Alpha  occ. eigenvalues --   -0.41137  -0.40722  -0.39947  -0.39708  -0.39186
 Alpha  occ. eigenvalues --   -0.38977  -0.37237  -0.34156  -0.32919  -0.32891
 Alpha  occ. eigenvalues --   -0.31985  -0.31837  -0.31706  -0.30174  -0.24552
 Alpha virt. eigenvalues --    0.01130   0.02298   0.02693   0.03943   0.04652
 Alpha virt. eigenvalues --    0.04708   0.05251   0.08221   0.10322   0.11070
 Alpha virt. eigenvalues --    0.11233   0.12009   0.12949   0.13533   0.14008

 Mulliken charges:
               1
     1  C   -0.087731
     2  C   -0.122631
     3  C   -0.134719
     4  C   -0.087728
     5  C    0.001276
     6  C   -0.134702
     7  H    0.105338
     8  H    0.128064
     9  H    0.102684
    10  H    0.128058
    11  C    0.036541
    12  C   -0.153067
    13  C   -0.153074
    14  C   -0.125550
    15  C   -0.125419
    16  C   -0.032734
    17  H    0.125363
    18  H    0.125362
    19  H    0.145688
    20  H    0.145696
    21  H    0.102684
    22  N   -0.008000
    23  C   -0.055847
    24  C   -0.112427
    25  C   -0.108507
    26  C   -0.111701
    27  C   -0.111562
    28  C   -0.101516
    29  H    0.148907
    30  H    0.147582
    31  H    0.105260
    32  H    0.105171
    33  H    0.103944
    34  C   -0.055819
    35  C   -0.112557
    36  C   -0.108402
    37  C   -0.111697
    38  C   -0.111587
    39  C   -0.101514
    40  H    0.148905
    41  H    0.147600
    42  H    0.105259
    43  H    0.105168
    44  H    0.103943
 Sum of Mulliken charges =  -0.00000

 Dipole moment (field-independent basis, Debye):
    X=              0.2401    Y=              0.0002    Z=             -0.0003  Tot=              0.2401
 Quadrupole moment (field-independent basis, Debye-Ang):
   XX=           -134.4723   YY=           -133.2468   ZZ=           -148.4916
   XY=              0.0006   XZ=             -0.0009   YZ=              0.4537

 1\1\GINC-CASCADEB025\SP\RLC-wHPBE\TZVP\C24H19N1\RDU230\17-Jan-2021\0\\
 #P LC-wHPBE/TZVP iop(3/107=0186800000, 3/108=0186800000) scf=(conver=6
 ,fermi,ndamp=35,noincfock,novaracc,vshift=500,xqc)\\H19 C24 N1\\0,1\C,
 0,6.129184,1.201496,-0.030856\C,0,6.830271,0.000001,0.000182\C,0,4.738
 958,1.200713,-0.032197\C,0,6.129235,-1.201473,0.031153\C,0,4.021751,-0
 .000032,0.000031\C,0,4.738962,-1.200719,0.032361\H,0,7.919539,0.000045
 ,0.00019\H,0,4.198073,2.145454,-0.081149\H,0,6.668779,-2.147537,0.0634
 12\H,0,4.198148,-2.145504,0.081256\C,0,2.536892,-0.000014,-0.000063\C,

 Normal termination of Gaussian 16 at Sun Jan 17 13:38:17 2021.
