 Gaussian 16, Revision A.03,
 Gaussian 16:  EM64L-G16RevA.03 25-Dec-2016

 ----------------------------------------------------------------------
 #P LC-wHPBE/TZVP iop(3/107=0156200000, 3/108=0156200000) scf=(conver=6
 ,fermi,ndamp=35,noincfock,novaracc,vshift=500,xqc)
 ----------------------------------------------------------------------

 ----------
 H19 C24 N1
 ----------
 Symbolic Z-matrix:
 Charge =  1 Multiplicity = 2

                         Standard orientation:
 ---------------------------------------------------------------------
 Center     Atomic      Atomic             Coordinates (Angstroms)
 Number     Number       Type             X           Y           Z
 ---------------------------------------------------------------------
      1          6           0       -6.129184    1.201496    0.030856
      2          6           0       -6.830271    0.000001   -0.000182
      3          6           0       -4.738958    1.200713    0.032197
      4          6           0       -6.129235   -1.201473   -0.031153
      5          6           0       -4.021751   -0.000032   -0.000031
      6          6           0       -4.738962   -1.200719   -0.032361
      7          1           0       -7.919539    0.000045   -0.000190
      8          1           0       -4.198073    2.145454    0.081149
      9          1           0       -6.668779   -2.147537   -0.063412
     10          1           0       -4.198148   -2.145504   -0.081256
     11          6           0       -2.536892   -0.000014    0.000063
     12          6           0       -1.813363   -0.924286    0.760077
     13          6           0       -1.813258    0.924290   -0.759786
     14          6           0       -0.426027   -0.922473    0.771159
     15          6           0       -0.425899    0.922498   -0.770636
     16          6           0        0.288344    0.000018    0.000311
     17          1           0       -2.347573   -1.638662    1.386050
     18          1           0       -2.347350    1.638674   -1.385851
     19          1           0        0.115370   -1.638494    1.387158
     20          1           0        0.115571    1.638578   -1.386504
     21          1           0       -6.668762    2.147543    0.063006
     22          7           0        1.704382   -0.000003    0.000499
     23          6           0        2.414266    1.227770   -0.004035
     24          6           0        3.559402    1.382015   -0.792108
     25          6           0        1.979956    2.301413    0.780170
     26          6           0        4.257371    2.583383   -0.786193
     27          6           0        2.673527    3.505213    0.765830
     28          6           0        3.817854    3.653503   -0.012423
     29          1           0        3.900046    0.551242   -1.407814
     30          1           0        1.092486    2.185578    1.400082
     31          1           0        5.147916    2.686607   -1.405370
     32          1           0        2.321511    4.331764    1.382280
     33          1           0        4.363183    4.595952   -0.015664
     34          6           0        2.414241   -1.227791    0.004406
     35          6           0        3.559682   -1.382189    0.792032
     36          6           0        1.979686   -2.301249   -0.779869
     37          6           0        4.257673   -2.583532    0.785597
     38          6           0        2.673287   -3.505060   -0.766028
     39          6           0        3.817885   -3.653507    0.011769
     40          1           0        3.900521   -0.551523    1.407763
     41          1           0        1.092008   -2.185299   -1.399468
     42          1           0        5.148466   -2.686887    1.404399
     43          1           0        2.321010   -4.331477   -1.382521
     44          1           0        4.363223   -4.595951    0.014691
 ---------------------------------------------------------------------

 SCF Done:  E(ULC-wHPBE) =  -979.822912668     A.U. after   22 cycles

 The electronic state is 2-A.
 Alpha  occ. eigenvalues --  -14.30831 -10.16574 -10.16304 -10.16302 -10.12399
 Alpha  occ. eigenvalues --  -10.11986 -10.11984 -10.11755 -10.11755 -10.11706
 Alpha  occ. eigenvalues --  -10.11705 -10.10910 -10.10910 -10.10814 -10.10812
 Alpha  occ. eigenvalues --  -10.10676 -10.10676 -10.10665 -10.10665 -10.09155
 Alpha  occ. eigenvalues --  -10.07637 -10.07635 -10.06992 -10.06920 -10.06910
 Alpha  occ. eigenvalues --   -1.15248  -1.02063  -1.01558  -0.99872  -0.97354
 Alpha  occ. eigenvalues --   -0.93045  -0.92394  -0.90443  -0.90401  -0.90199
 Alpha  occ. eigenvalues --   -0.88547  -0.86346  -0.85447  -0.80268  -0.80066
 Alpha  occ. eigenvalues --   -0.77673  -0.76854  -0.76753  -0.74214  -0.72932
 Alpha  occ. eigenvalues --   -0.72327  -0.71325  -0.71169  -0.67300  -0.66118
 Alpha  occ. eigenvalues --   -0.65520  -0.65306  -0.62757  -0.62723  -0.62353
 Alpha  occ. eigenvalues --   -0.60631  -0.60487  -0.59982  -0.59581  -0.59312
 Alpha  occ. eigenvalues --   -0.59066  -0.58718  -0.57759  -0.56841  -0.56063
 Alpha  occ. eigenvalues --   -0.55948  -0.55183  -0.54105  -0.53461  -0.53268
 Alpha  occ. eigenvalues --   -0.52896  -0.51820  -0.51415  -0.51353  -0.50217
 Alpha  occ. eigenvalues --   -0.48329  -0.47679  -0.45909  -0.45534  -0.45224
 Alpha  occ. eigenvalues --   -0.44093  -0.43997  -0.41017  -0.40457  -0.38520
 Alpha virt. eigenvalues --   -0.12466  -0.11729  -0.11659  -0.09577  -0.09384
 Alpha virt. eigenvalues --   -0.08126  -0.06468  -0.05034  -0.02208  -0.00659
 Alpha virt. eigenvalues --   -0.00351   0.00986   0.01094   0.01816   0.01947

  Beta  occ. eigenvalues --  -14.30048 -10.16577 -10.16342 -10.16340 -10.12216
  Beta  occ. eigenvalues --  -10.11856 -10.11855 -10.11624 -10.11624 -10.11579
  Beta  occ. eigenvalues --  -10.11578 -10.10857 -10.10856 -10.10771 -10.10771
  Beta  occ. eigenvalues --  -10.10724 -10.10724 -10.10706 -10.10706 -10.09169
  Beta  occ. eigenvalues --  -10.07599 -10.07597 -10.06963 -10.06934 -10.06910
  Beta  occ. eigenvalues --   -1.14236  -1.01831  -1.01363  -0.99611  -0.97242
  Beta  occ. eigenvalues --   -0.92822  -0.92199  -0.90298  -0.90252  -0.90056
  Beta  occ. eigenvalues --   -0.88244  -0.86306  -0.85181  -0.80022  -0.79835
  Beta  occ. eigenvalues --   -0.77433  -0.76694  -0.76636  -0.74056  -0.72872
  Beta  occ. eigenvalues --   -0.72243  -0.71155  -0.71017  -0.67193  -0.65988
  Beta  occ. eigenvalues --   -0.65288  -0.64661  -0.62632  -0.62621  -0.62262
  Beta  occ. eigenvalues --   -0.60555  -0.60357  -0.59854  -0.59458  -0.59203
  Beta  occ. eigenvalues --   -0.59000  -0.58600  -0.57719  -0.56222  -0.55746
  Beta  occ. eigenvalues --   -0.55558  -0.55065  -0.54025  -0.53175  -0.52938
  Beta  occ. eigenvalues --   -0.52675  -0.51637  -0.51323  -0.51251  -0.49337
  Beta  occ. eigenvalues --   -0.48286  -0.47549  -0.44989  -0.44890  -0.44649
  Beta  occ. eigenvalues --   -0.43637  -0.43619  -0.40373  -0.39460
  Beta virt. eigenvalues --   -0.24783  -0.11806  -0.11396  -0.11122  -0.09123
  Beta virt. eigenvalues --   -0.09000  -0.07325  -0.06369  -0.04588  -0.02112
  Beta virt. eigenvalues --   -0.00591  -0.00273   0.01044   0.01151   0.01886

 Mulliken charges and spin densities:
               1          2
     1  C   -0.085603  -0.013624
     2  C   -0.103886   0.034855
     3  C   -0.122306   0.028435
     4  C   -0.085598  -0.013625
     5  C    0.025641  -0.016348
     6  C   -0.122291   0.028442
     7  H    0.134212  -0.001805
     8  H    0.138535  -0.001591
     9  H    0.127910   0.000637
    10  H    0.138531  -0.001592
    11  C    0.016257   0.137114
    12  C   -0.133392  -0.045415
    13  C   -0.133396  -0.045399
    14  C   -0.101420   0.089217
    15  C   -0.101281   0.089215
    16  C   -0.042578   0.015438
    17  H    0.163033   0.002167
    18  H    0.163031   0.002166
    19  H    0.175341  -0.003882
    20  H    0.175339  -0.003882
    21  H    0.127911   0.000637
    22  N    0.090473   0.348962
    23  C   -0.075219  -0.011087
    24  C   -0.088759   0.090244
    25  C   -0.086720   0.091007
    26  C   -0.102382  -0.049485
    27  C   -0.102381  -0.051015
    28  C   -0.063415   0.124044
    29  H    0.177728  -0.003787
    30  H    0.175575  -0.003870
    31  H    0.147127   0.002469
    32  H    0.146374   0.002607
    33  H    0.149838  -0.006194
    34  C   -0.075191  -0.011092
    35  C   -0.088890   0.090255
    36  C   -0.086608   0.091016
    37  C   -0.102381  -0.049498
    38  C   -0.102404  -0.051013
    39  C   -0.063410   0.124054
    40  H    0.177735  -0.003787
    41  H    0.175585  -0.003871
    42  H    0.147128   0.002468
    43  H    0.146371   0.002608
    44  H    0.149838  -0.006194
 Sum of Mulliken charges =   1.00000   1.00000

 Dipole moment (field-independent basis, Debye):
    X=              4.2347    Y=              0.0000    Z=             -0.0003  Tot=              4.2347
 Quadrupole moment (field-independent basis, Debye-Ang):
   XX=            -63.2719   YY=            -99.1064   ZZ=           -140.6003
   XY=              0.0002   XZ=             -0.0015   YZ=              0.3988

 Normal termination of Gaussian 16 at Sun Jan 17 13:00:27 2021.
