 Gaussian 16, Revision A.03,
 Gaussian 16:  EM64L-G16RevA.03 25-Dec-2016

 ----------------------------------------------------------------------
 #P LC-wHPBE/TZVP iop(3/107=0190100000, 3/108=0190100000) scf=(conver=6
 ,fermi,ndamp=35,noincfock,novaracc,vshift=500,xqc)
 ----------------------------------------------------------------------

 ----------
 H19 C24 N1
 ----------
 Symbolic Z-matrix:
 Charge =  0 Multiplicity = 1

                         Standard orientation:
 ---------------------------------------------------------------------
 Center     Atomic      Atomic             Coordinates (Angstroms)
 Number     Number       Type             X           Y           Z
 ---------------------------------------------------------------------
      1          6           0       -6.129184    1.201496    0.030856
      2          6           0       -6.830271    0.000001   -0.000182
      3          6           0       -4.738958    1.200713    0.032197
      4          6           0       -6.129235   -1.201473   -0.031153
      5          6           0       -4.021751   -0.000032   -0.000031
      6          6           0       -4.738962   -1.200719   -0.032361
      7          1           0       -7.919539    0.000045   -0.000190
      8          1           0       -4.198073    2.145454    0.081149
      9          1           0       -6.668779   -2.147537   -0.063412
     10          1           0       -4.198148   -2.145504   -0.081256
     11          6           0       -2.536892   -0.000014    0.000063
     12          6           0       -1.813363   -0.924286    0.760077
     13          6           0       -1.813258    0.924290   -0.759786
     14          6           0       -0.426027   -0.922473    0.771159
     15          6           0       -0.425899    0.922498   -0.770636
     16          6           0        0.288344    0.000018    0.000311
     17          1           0       -2.347573   -1.638662    1.386050
     18          1           0       -2.347350    1.638674   -1.385851
     19          1           0        0.115370   -1.638494    1.387158
     20          1           0        0.115571    1.638578   -1.386504
     21          1           0       -6.668762    2.147543    0.063006
     22          7           0        1.704382   -0.000003    0.000499
     23          6           0        2.414266    1.227770   -0.004035
     24          6           0        3.559402    1.382015   -0.792108
     25          6           0        1.979956    2.301413    0.780170
     26          6           0        4.257371    2.583383   -0.786193
     27          6           0        2.673527    3.505213    0.765830
     28          6           0        3.817854    3.653503   -0.012423
     29          1           0        3.900046    0.551242   -1.407814
     30          1           0        1.092486    2.185578    1.400082
     31          1           0        5.147916    2.686607   -1.405370
     32          1           0        2.321511    4.331764    1.382280
     33          1           0        4.363183    4.595952   -0.015664
     34          6           0        2.414241   -1.227791    0.004406
     35          6           0        3.559682   -1.382189    0.792032
     36          6           0        1.979686   -2.301249   -0.779869
     37          6           0        4.257673   -2.583532    0.785597
     38          6           0        2.673287   -3.505060   -0.766028
     39          6           0        3.817885   -3.653507    0.011769
     40          1           0        3.900521   -0.551523    1.407763
     41          1           0        1.092008   -2.185299   -1.399468
     42          1           0        5.148466   -2.686887    1.404399
     43          1           0        2.321010   -4.331477   -1.382521
     44          1           0        4.363223   -4.595951    0.014691
 ---------------------------------------------------------------------

 SCF Done:  E(RLC-wHPBE) =  -980.111824155     A.U. after   14 cycles

 The electronic state is 1-A.
 Alpha  occ. eigenvalues --  -14.12819 -10.03765 -10.03763 -10.03744 -10.00624
 Alpha  occ. eigenvalues --  -10.00336  -9.99727  -9.99727  -9.99723  -9.99723
 Alpha  occ. eigenvalues --   -9.99715  -9.99712  -9.99545  -9.99541  -9.99488
 Alpha  occ. eigenvalues --   -9.99487  -9.99456  -9.99456  -9.99448  -9.99448
 Alpha  occ. eigenvalues --   -9.99448  -9.99448  -9.99415  -9.99261  -9.99260
 Alpha  occ. eigenvalues --   -1.00172  -0.90684  -0.89680  -0.89075  -0.87657
 Alpha  occ. eigenvalues --   -0.82005  -0.80298  -0.79163  -0.79064  -0.78722
 Alpha  occ. eigenvalues --   -0.78395  -0.77706  -0.74642  -0.68436  -0.68033
 Alpha  occ. eigenvalues --   -0.66334  -0.65562  -0.65236  -0.64097  -0.63628
 Alpha  occ. eigenvalues --   -0.62004  -0.59337  -0.59191  -0.57715  -0.55026
 Alpha  occ. eigenvalues --   -0.53640  -0.52798  -0.52667  -0.51252  -0.50684
 Alpha  occ. eigenvalues --   -0.49776  -0.49530  -0.49318  -0.48638  -0.48391
 Alpha  occ. eigenvalues --   -0.47885  -0.47677  -0.47536  -0.47145  -0.44422
 Alpha  occ. eigenvalues --   -0.44115  -0.43992  -0.43743  -0.43236  -0.41859
 Alpha  occ. eigenvalues --   -0.41269  -0.40857  -0.40077  -0.39837  -0.39315
 Alpha  occ. eigenvalues --   -0.39107  -0.37366  -0.34268  -0.33025  -0.32998
 Alpha  occ. eigenvalues --   -0.32091  -0.31942  -0.31811  -0.30272  -0.24637
 Alpha virt. eigenvalues --    0.01205   0.02381   0.02774   0.04029   0.04742
 Alpha virt. eigenvalues --    0.04798   0.05338   0.08315   0.10405   0.11153
 Alpha virt. eigenvalues --    0.11317   0.12093   0.13031   0.13615   0.14090

 Mulliken charges:
               1
     1  C   -0.087948
     2  C   -0.123047
     3  C   -0.135187
     4  C   -0.087945
     5  C    0.001499
     6  C   -0.135170
     7  H    0.105642
     8  H    0.128431
     9  H    0.102994
    10  H    0.128425
    11  C    0.036237
    12  C   -0.153432
    13  C   -0.153439
    14  C   -0.125605
    15  C   -0.125475
    16  C   -0.032987
    17  H    0.125746
    18  H    0.125745
    19  H    0.146116
    20  H    0.146124
    21  H    0.102994
    22  N   -0.009060
    23  C   -0.055666
    24  C   -0.112697
    25  C   -0.108761
    26  C   -0.112007
    27  C   -0.111860
    28  C   -0.101943
    29  H    0.149316
    30  H    0.147997
    31  H    0.105563
    32  H    0.105473
    33  H    0.104257
    34  C   -0.055638
    35  C   -0.112827
    36  C   -0.108656
    37  C   -0.112003
    38  C   -0.111886
    39  C   -0.101940
    40  H    0.149314
    41  H    0.148016
    42  H    0.105562
    43  H    0.105470
    44  H    0.104256
 Sum of Mulliken charges =  -0.00000

 Dipole moment (field-independent basis, Debye):
    X=              0.2388    Y=              0.0002    Z=             -0.0003  Tot=              0.2388
 Quadrupole moment (field-independent basis, Debye-Ang):
   XX=           -134.4409   YY=           -133.2185   ZZ=           -148.4781
   XY=              0.0006   XZ=             -0.0009   YZ=              0.4534

 1\1\GINC-CASCADEB025\SP\RLC-wHPBE\TZVP\C24H19N1\RDU230\17-Jan-2021\0\\
 #P LC-wHPBE/TZVP iop(3/107=0190100000, 3/108=0190100000) scf=(conver=6
 ,fermi,ndamp=35,noincfock,novaracc,vshift=500,xqc)\\H19 C24 N1\\0,1\C,
 0,6.129184,1.201496,-0.030856\C,0,6.830271,0.000001,0.000182\C,0,4.738
 958,1.200713,-0.032197\C,0,6.129235,-1.201473,0.031153\C,0,4.021751,-0
 .000032,0.000031\C,0,4.738962,-1.200719,0.032361\H,0,7.919539,0.000045
 ,0.00019\H,0,4.198073,2.145454,-0.081149\H,0,6.668779,-2.147537,0.0634
 12\H,0,4.198148,-2.145504,0.081256\C,0,2.536892,-0.000014,-0.000063\C,

 Normal termination of Gaussian 16 at Sun Jan 17 14:04:40 2021.
