 Gaussian 16, Revision A.03,
 Gaussian 16:  EM64L-G16RevA.03 25-Dec-2016

 ----------------------------------------------------------------------
 #P LC-wHPBE/TZVP iop(3/107=0177900000, 3/108=0177900000) scf=(conver=6
 ,fermi,ndamp=35,noincfock,novaracc,vshift=500,xqc)
 ----------------------------------------------------------------------

 ----------
 H19 C24 N1
 ----------
 Symbolic Z-matrix:
 Charge =  0 Multiplicity = 1

                         Standard orientation:
 ---------------------------------------------------------------------
 Center     Atomic      Atomic             Coordinates (Angstroms)
 Number     Number       Type             X           Y           Z
 ---------------------------------------------------------------------
      1          6           0       -6.129184    1.201496    0.030856
      2          6           0       -6.830271    0.000001   -0.000182
      3          6           0       -4.738958    1.200713    0.032197
      4          6           0       -6.129235   -1.201473   -0.031153
      5          6           0       -4.021751   -0.000032   -0.000031
      6          6           0       -4.738962   -1.200719   -0.032361
      7          1           0       -7.919539    0.000045   -0.000190
      8          1           0       -4.198073    2.145454    0.081149
      9          1           0       -6.668779   -2.147537   -0.063412
     10          1           0       -4.198148   -2.145504   -0.081256
     11          6           0       -2.536892   -0.000014    0.000063
     12          6           0       -1.813363   -0.924286    0.760077
     13          6           0       -1.813258    0.924290   -0.759786
     14          6           0       -0.426027   -0.922473    0.771159
     15          6           0       -0.425899    0.922498   -0.770636
     16          6           0        0.288344    0.000018    0.000311
     17          1           0       -2.347573   -1.638662    1.386050
     18          1           0       -2.347350    1.638674   -1.385851
     19          1           0        0.115370   -1.638494    1.387158
     20          1           0        0.115571    1.638578   -1.386504
     21          1           0       -6.668762    2.147543    0.063006
     22          7           0        1.704382   -0.000003    0.000499
     23          6           0        2.414266    1.227770   -0.004035
     24          6           0        3.559402    1.382015   -0.792108
     25          6           0        1.979956    2.301413    0.780170
     26          6           0        4.257371    2.583383   -0.786193
     27          6           0        2.673527    3.505213    0.765830
     28          6           0        3.817854    3.653503   -0.012423
     29          1           0        3.900046    0.551242   -1.407814
     30          1           0        1.092486    2.185578    1.400082
     31          1           0        5.147916    2.686607   -1.405370
     32          1           0        2.321511    4.331764    1.382280
     33          1           0        4.363183    4.595952   -0.015664
     34          6           0        2.414241   -1.227791    0.004406
     35          6           0        3.559682   -1.382189    0.792032
     36          6           0        1.979686   -2.301249   -0.779869
     37          6           0        4.257673   -2.583532    0.785597
     38          6           0        2.673287   -3.505060   -0.766028
     39          6           0        3.817885   -3.653507    0.011769
     40          1           0        3.900521   -0.551523    1.407763
     41          1           0        1.092008   -2.185299   -1.399468
     42          1           0        5.148466   -2.686887    1.404399
     43          1           0        2.321010   -4.331477   -1.382521
     44          1           0        4.363223   -4.595951    0.014691
 ---------------------------------------------------------------------

 SCF Done:  E(RLC-wHPBE) =  -980.095270565     A.U. after   14 cycles

 The electronic state is 1-A.
 Alpha  occ. eigenvalues --  -14.12187 -10.03071 -10.03070 -10.03049  -9.99933
 Alpha  occ. eigenvalues --   -9.99647  -9.99040  -9.99040  -9.99036  -9.99036
 Alpha  occ. eigenvalues --   -9.99026  -9.99023  -9.98856  -9.98853  -9.98805
 Alpha  occ. eigenvalues --   -9.98804  -9.98775  -9.98774  -9.98767  -9.98767
 Alpha  occ. eigenvalues --   -9.98760  -9.98760  -9.98726  -9.98575  -9.98575
 Alpha  occ. eigenvalues --   -0.99467  -0.89952  -0.88955  -0.88348  -0.86938
 Alpha  occ. eigenvalues --   -0.81299  -0.79602  -0.78466  -0.78365  -0.78028
 Alpha  occ. eigenvalues --   -0.77699  -0.77019  -0.73970  -0.67793  -0.67390
 Alpha  occ. eigenvalues --   -0.65691  -0.64924  -0.64602  -0.63466  -0.63002
 Alpha  occ. eigenvalues --   -0.61383  -0.58728  -0.58587  -0.57110  -0.54441
 Alpha  occ. eigenvalues --   -0.53068  -0.52222  -0.52093  -0.50689  -0.50125
 Alpha  occ. eigenvalues --   -0.49219  -0.48974  -0.48764  -0.48093  -0.47853
 Alpha  occ. eigenvalues --   -0.47338  -0.47134  -0.46997  -0.46603  -0.43845
 Alpha  occ. eigenvalues --   -0.43555  -0.43432  -0.43218  -0.42664  -0.41363
 Alpha  occ. eigenvalues --   -0.40776  -0.40354  -0.39589  -0.39352  -0.38835
 Alpha  occ. eigenvalues --   -0.38623  -0.36881  -0.33844  -0.32622  -0.32592
 Alpha  occ. eigenvalues --   -0.31689  -0.31544  -0.31414  -0.29903  -0.24318
 Alpha virt. eigenvalues --    0.00917   0.02066   0.02464   0.03701   0.04402
 Alpha virt. eigenvalues --    0.04455   0.05008   0.07956   0.10087   0.10837
 Alpha virt. eigenvalues --    0.10998   0.11775   0.12720   0.13304   0.13777

 Mulliken charges:
               1
     1  C   -0.087198
     2  C   -0.121575
     3  C   -0.133514
     4  C   -0.087195
     5  C    0.000625
     6  C   -0.133498
     7  H    0.104581
     8  H    0.127136
     9  H    0.101912
    10  H    0.127130
    11  C    0.037316
    12  C   -0.152091
    13  C   -0.152098
    14  C   -0.125439
    15  C   -0.125307
    16  C   -0.032126
    17  H    0.124395
    18  H    0.124394
    19  H    0.144598
    20  H    0.144607
    21  H    0.101913
    22  N   -0.005198
    23  C   -0.056389
    24  C   -0.111764
    25  C   -0.107893
    26  C   -0.110894
    27  C   -0.110774
    28  C   -0.100449
    29  H    0.147865
    30  H    0.146523
    31  H    0.104508
    32  H    0.104420
    33  H    0.103165
    34  C   -0.056361
    35  C   -0.111895
    36  C   -0.107787
    37  C   -0.110890
    38  C   -0.110800
    39  C   -0.100446
    40  H    0.147864
    41  H    0.146542
    42  H    0.104508
    43  H    0.104417
    44  H    0.103164
 Sum of Mulliken charges =  -0.00000

 Dipole moment (field-independent basis, Debye):
    X=              0.2437    Y=              0.0002    Z=             -0.0003  Tot=              0.2437
 Quadrupole moment (field-independent basis, Debye-Ang):
   XX=           -134.5567   YY=           -133.3221   ZZ=           -148.5281
   XY=              0.0006   XZ=             -0.0009   YZ=              0.4545

 1\1\GINC-CASCADEB025\SP\RLC-wHPBE\TZVP\C24H19N1\RDU230\17-Jan-2021\0\\
 #P LC-wHPBE/TZVP iop(3/107=0177900000, 3/108=0177900000) scf=(conver=6
 ,fermi,ndamp=35,noincfock,novaracc,vshift=500,xqc)\\H19 C24 N1\\0,1\C,
 0,6.129184,1.201496,-0.030856\C,0,6.830271,0.000001,0.000182\C,0,4.738
 958,1.200713,-0.032197\C,0,6.129235,-1.201473,0.031153\C,0,4.021751,-0
 .000032,0.000031\C,0,4.738962,-1.200719,0.032361\H,0,7.919539,0.000045
 ,0.00019\H,0,4.198073,2.145454,-0.081149\H,0,6.668779,-2.147537,0.0634
 12\H,0,4.198148,-2.145504,0.081256\C,0,2.536892,-0.000014,-0.000063\C,

 Normal termination of Gaussian 16 at Sun Jan 17 14:58:22 2021.
