 Gaussian 16, Revision A.03,
 Gaussian 16:  EM64L-G16RevA.03 25-Dec-2016

 ----------------------------------------------------------------------
 #P LC-wHPBE/TZVP iop(3/107=0177900000, 3/108=0177900000) scf=(conver=6
 ,fermi,ndamp=35,noincfock,novaracc,vshift=500,xqc)
 ----------------------------------------------------------------------

 ----------
 H19 C24 N1
 ----------
 Symbolic Z-matrix:
 Charge =  1 Multiplicity = 2

                         Standard orientation:
 ---------------------------------------------------------------------
 Center     Atomic      Atomic             Coordinates (Angstroms)
 Number     Number       Type             X           Y           Z
 ---------------------------------------------------------------------
      1          6           0       -6.129184    1.201496    0.030856
      2          6           0       -6.830271    0.000001   -0.000182
      3          6           0       -4.738958    1.200713    0.032197
      4          6           0       -6.129235   -1.201473   -0.031153
      5          6           0       -4.021751   -0.000032   -0.000031
      6          6           0       -4.738962   -1.200719   -0.032361
      7          1           0       -7.919539    0.000045   -0.000190
      8          1           0       -4.198073    2.145454    0.081149
      9          1           0       -6.668779   -2.147537   -0.063412
     10          1           0       -4.198148   -2.145504   -0.081256
     11          6           0       -2.536892   -0.000014    0.000063
     12          6           0       -1.813363   -0.924286    0.760077
     13          6           0       -1.813258    0.924290   -0.759786
     14          6           0       -0.426027   -0.922473    0.771159
     15          6           0       -0.425899    0.922498   -0.770636
     16          6           0        0.288344    0.000018    0.000311
     17          1           0       -2.347573   -1.638662    1.386050
     18          1           0       -2.347350    1.638674   -1.385851
     19          1           0        0.115370   -1.638494    1.387158
     20          1           0        0.115571    1.638578   -1.386504
     21          1           0       -6.668762    2.147543    0.063006
     22          7           0        1.704382   -0.000003    0.000499
     23          6           0        2.414266    1.227770   -0.004035
     24          6           0        3.559402    1.382015   -0.792108
     25          6           0        1.979956    2.301413    0.780170
     26          6           0        4.257371    2.583383   -0.786193
     27          6           0        2.673527    3.505213    0.765830
     28          6           0        3.817854    3.653503   -0.012423
     29          1           0        3.900046    0.551242   -1.407814
     30          1           0        1.092486    2.185578    1.400082
     31          1           0        5.147916    2.686607   -1.405370
     32          1           0        2.321511    4.331764    1.382280
     33          1           0        4.363183    4.595952   -0.015664
     34          6           0        2.414241   -1.227791    0.004406
     35          6           0        3.559682   -1.382189    0.792032
     36          6           0        1.979686   -2.301249   -0.779869
     37          6           0        4.257673   -2.583532    0.785597
     38          6           0        2.673287   -3.505060   -0.766028
     39          6           0        3.817885   -3.653507    0.011769
     40          1           0        3.900521   -0.551523    1.407763
     41          1           0        1.092008   -2.185299   -1.399468
     42          1           0        5.148466   -2.686887    1.404399
     43          1           0        2.321010   -4.331477   -1.382521
     44          1           0        4.363223   -4.595951    0.014691
 ---------------------------------------------------------------------

 SCF Done:  E(ULC-wHPBE) =  -979.851198111     A.U. after   20 cycles

 The electronic state is 2-A.
 Alpha  occ. eigenvalues --  -14.32274 -10.17840 -10.17597 -10.17595 -10.13637
 Alpha  occ. eigenvalues --  -10.13261 -10.13260 -10.13049 -10.13049 -10.13002
 Alpha  occ. eigenvalues --  -10.13002 -10.12184 -10.12184 -10.12027 -10.12025
 Alpha  occ. eigenvalues --  -10.11933 -10.11933 -10.11923 -10.11922 -10.10292
 Alpha  occ. eigenvalues --  -10.08781 -10.08779 -10.08119 -10.08059 -10.08046
 Alpha  occ. eigenvalues --   -1.16679  -1.03388  -1.02912  -1.01203  -0.98588
 Alpha  occ. eigenvalues --   -0.94320  -0.93707  -0.91718  -0.91697  -0.91500
 Alpha  occ. eigenvalues --   -0.89809  -0.87519  -0.86652  -0.81499  -0.81272
 Alpha  occ. eigenvalues --   -0.78877  -0.78058  -0.77948  -0.75379  -0.74024
 Alpha  occ. eigenvalues --   -0.73439  -0.72483  -0.72338  -0.68417  -0.67217
 Alpha  occ. eigenvalues --   -0.66649  -0.66455  -0.63825  -0.63778  -0.63425
 Alpha  occ. eigenvalues --   -0.61700  -0.61560  -0.61001  -0.60649  -0.60338
 Alpha  occ. eigenvalues --   -0.60119  -0.59718  -0.58734  -0.57929  -0.57119
 Alpha  occ. eigenvalues --   -0.57073  -0.56129  -0.55045  -0.54500  -0.54230
 Alpha  occ. eigenvalues --   -0.53876  -0.52802  -0.52374  -0.52295  -0.51206
 Alpha  occ. eigenvalues --   -0.49171  -0.48521  -0.46728  -0.46372  -0.46058
 Alpha  occ. eigenvalues --   -0.44897  -0.44816  -0.41769  -0.41150  -0.39200
 Alpha virt. eigenvalues --   -0.11895  -0.11158  -0.11056  -0.08926  -0.08751
 Alpha virt. eigenvalues --   -0.07491  -0.05735  -0.04294  -0.01613  -0.00049
 Alpha virt. eigenvalues --    0.00272   0.01600   0.01704   0.02434   0.02552

  Beta  occ. eigenvalues --  -14.31459 -10.17852 -10.17644 -10.17642 -10.13449
  Beta  occ. eigenvalues --  -10.13125 -10.13123 -10.12912 -10.12912 -10.12869
  Beta  occ. eigenvalues --  -10.12868 -10.12078 -10.12076 -10.12040 -10.12040
  Beta  occ. eigenvalues --  -10.11987 -10.11987 -10.11970 -10.11970 -10.10309
  Beta  occ. eigenvalues --  -10.08744 -10.08742 -10.08096 -10.08073 -10.08043
  Beta  occ. eigenvalues --   -1.15631  -1.03155  -1.02717  -1.00935  -0.98478
  Beta  occ. eigenvalues --   -0.94097  -0.93512  -0.91572  -0.91546  -0.91356
  Beta  occ. eigenvalues --   -0.89488  -0.87481  -0.86384  -0.81245  -0.81033
  Beta  occ. eigenvalues --   -0.78630  -0.77897  -0.77831  -0.75218  -0.73966
  Beta  occ. eigenvalues --   -0.73356  -0.72310  -0.72184  -0.68304  -0.67085
  Beta  occ. eigenvalues --   -0.66399  -0.65772  -0.63701  -0.63673  -0.63334
  Beta  occ. eigenvalues --   -0.61622  -0.61422  -0.60869  -0.60518  -0.60229
  Beta  occ. eigenvalues --   -0.60050  -0.59589  -0.58693  -0.57302  -0.56776
  Beta  occ. eigenvalues --   -0.56655  -0.56014  -0.54964  -0.54136  -0.53903
  Beta  occ. eigenvalues --   -0.53643  -0.52601  -0.52278  -0.52195  -0.50224
  Beta  occ. eigenvalues --   -0.49128  -0.48381  -0.45708  -0.45707  -0.45413
  Beta  occ. eigenvalues --   -0.44422  -0.44372  -0.41068  -0.40083
  Beta virt. eigenvalues --   -0.24467  -0.11221  -0.10785  -0.10525  -0.08435
  Beta virt. eigenvalues --   -0.08337  -0.06608  -0.05638  -0.03818  -0.01518
  Beta virt. eigenvalues --    0.00019   0.00350   0.01658   0.01763   0.02504

 Mulliken charges and spin densities:
               1          2
     1  C   -0.086953  -0.014072
     2  C   -0.106338   0.033126
     3  C   -0.125004   0.028377
     4  C   -0.086949  -0.014073
     5  C    0.027524  -0.019526
     6  C   -0.124989   0.028383
     7  H    0.135049  -0.001699
     8  H    0.139679  -0.001559
     9  H    0.128816   0.000653
    10  H    0.139675  -0.001559
    11  C    0.014360   0.142167
    12  C   -0.136009  -0.052024
    13  C   -0.136014  -0.052009
    14  C   -0.100926   0.094997
    15  C   -0.100790   0.094995
    16  C   -0.044948   0.008514
    17  H    0.164961   0.002427
    18  H    0.164959   0.002426
    19  H    0.177619  -0.004124
    20  H    0.177617  -0.004124
    21  H    0.128816   0.000653
    22  N    0.090092   0.363608
    23  C   -0.075428  -0.017395
    24  C   -0.089283   0.095312
    25  C   -0.087135   0.095970
    26  C   -0.104809  -0.054755
    27  C   -0.104768  -0.056269
    28  C   -0.064623   0.128272
    29  H    0.180042  -0.003984
    30  H    0.178088  -0.004063
    31  H    0.148570   0.002682
    32  H    0.147863   0.002815
    33  H    0.151353  -0.006368
    34  C   -0.075400  -0.017401
    35  C   -0.089412   0.095323
    36  C   -0.087026   0.095980
    37  C   -0.104807  -0.054768
    38  C   -0.104790  -0.056268
    39  C   -0.064618   0.128282
    40  H    0.180049  -0.003984
    41  H    0.178099  -0.004064
    42  H    0.148571   0.002682
    43  H    0.147860   0.002816
    44  H    0.151353  -0.006369
 Sum of Mulliken charges =   1.00000   1.00000

 Dipole moment (field-independent basis, Debye):
    X=              4.4078    Y=              0.0000    Z=             -0.0003  Tot=              4.4078
 Quadrupole moment (field-independent basis, Debye-Ang):
   XX=            -63.7792   YY=            -98.9191   ZZ=           -140.5182
   XY=              0.0002   XZ=             -0.0016   YZ=              0.4023

 Normal termination of Gaussian 16 at Sun Jan 17 15:15:54 2021.
