 Gaussian 16, Revision A.03,
 Gaussian 16:  EM64L-G16RevA.03 25-Dec-2016

 ----------------------------------------------------------------------
 #P LC-wHPBE/TZVP iop(3/107=0182000000, 3/108=0182000000) scf=(conver=6
 ,fermi,ndamp=35,noincfock,novaracc,vshift=500,xqc)
 ----------------------------------------------------------------------

 ----------
 H19 C24 N1
 ----------
 Symbolic Z-matrix:
 Charge =  1 Multiplicity = 2

                         Standard orientation:
 ---------------------------------------------------------------------
 Center     Atomic      Atomic             Coordinates (Angstroms)
 Number     Number       Type             X           Y           Z
 ---------------------------------------------------------------------
      1          6           0       -6.129184    1.201496    0.030856
      2          6           0       -6.830271    0.000001   -0.000182
      3          6           0       -4.738958    1.200713    0.032197
      4          6           0       -6.129235   -1.201473   -0.031153
      5          6           0       -4.021751   -0.000032   -0.000031
      6          6           0       -4.738962   -1.200719   -0.032361
      7          1           0       -7.919539    0.000045   -0.000190
      8          1           0       -4.198073    2.145454    0.081149
      9          1           0       -6.668779   -2.147537   -0.063412
     10          1           0       -4.198148   -2.145504   -0.081256
     11          6           0       -2.536892   -0.000014    0.000063
     12          6           0       -1.813363   -0.924286    0.760077
     13          6           0       -1.813258    0.924290   -0.759786
     14          6           0       -0.426027   -0.922473    0.771159
     15          6           0       -0.425899    0.922498   -0.770636
     16          6           0        0.288344    0.000018    0.000311
     17          1           0       -2.347573   -1.638662    1.386050
     18          1           0       -2.347350    1.638674   -1.385851
     19          1           0        0.115370   -1.638494    1.387158
     20          1           0        0.115571    1.638578   -1.386504
     21          1           0       -6.668762    2.147543    0.063006
     22          7           0        1.704382   -0.000003    0.000499
     23          6           0        2.414266    1.227770   -0.004035
     24          6           0        3.559402    1.382015   -0.792108
     25          6           0        1.979956    2.301413    0.780170
     26          6           0        4.257371    2.583383   -0.786193
     27          6           0        2.673527    3.505213    0.765830
     28          6           0        3.817854    3.653503   -0.012423
     29          1           0        3.900046    0.551242   -1.407814
     30          1           0        1.092486    2.185578    1.400082
     31          1           0        5.147916    2.686607   -1.405370
     32          1           0        2.321511    4.331764    1.382280
     33          1           0        4.363183    4.595952   -0.015664
     34          6           0        2.414241   -1.227791    0.004406
     35          6           0        3.559682   -1.382189    0.792032
     36          6           0        1.979686   -2.301249   -0.779869
     37          6           0        4.257673   -2.583532    0.785597
     38          6           0        2.673287   -3.505060   -0.766028
     39          6           0        3.817885   -3.653507    0.011769
     40          1           0        3.900521   -0.551523    1.407763
     41          1           0        1.092008   -2.185299   -1.399468
     42          1           0        5.148466   -2.686887    1.404399
     43          1           0        2.321010   -4.331477   -1.382521
     44          1           0        4.363223   -4.595951    0.014691
 ---------------------------------------------------------------------

 SCF Done:  E(ULC-wHPBE) =  -979.856503698     A.U. after   20 cycles

 The electronic state is 2-A.
 Alpha  occ. eigenvalues --  -14.32544 -10.18079 -10.17839 -10.17838 -10.13872
 Alpha  occ. eigenvalues --  -10.13502 -10.13501 -10.13292 -10.13291 -10.13245
 Alpha  occ. eigenvalues --  -10.13244 -10.12423 -10.12423 -10.12257 -10.12255
 Alpha  occ. eigenvalues --  -10.12168 -10.12168 -10.12158 -10.12158 -10.10510
 Alpha  occ. eigenvalues --  -10.09001 -10.08999 -10.08335 -10.08277 -10.08264
 Alpha  occ. eigenvalues --   -1.16947  -1.03639  -1.03166  -1.01454  -0.98824
 Alpha  occ. eigenvalues --   -0.94560  -0.93952  -0.91958  -0.91939  -0.91743
 Alpha  occ. eigenvalues --   -0.90046  -0.87743  -0.86879  -0.81727  -0.81496
 Alpha  occ. eigenvalues --   -0.79101  -0.78280  -0.78170  -0.75595  -0.74230
 Alpha  occ. eigenvalues --   -0.73647  -0.72696  -0.72553  -0.68624  -0.67420
 Alpha  occ. eigenvalues --   -0.66858  -0.66666  -0.64021  -0.63973  -0.63621
 Alpha  occ. eigenvalues --   -0.61895  -0.61755  -0.61188  -0.60844  -0.60527
 Alpha  occ. eigenvalues --   -0.60312  -0.59903  -0.58914  -0.58128  -0.57313
 Alpha  occ. eigenvalues --   -0.57278  -0.56304  -0.55218  -0.54690  -0.54405
 Alpha  occ. eigenvalues --   -0.54054  -0.52982  -0.52547  -0.52467  -0.51386
 Alpha  occ. eigenvalues --   -0.49327  -0.48677  -0.46875  -0.46520  -0.46205
 Alpha  occ. eigenvalues --   -0.45040  -0.44961  -0.41904  -0.41275  -0.39321
 Alpha virt. eigenvalues --   -0.11796  -0.11058  -0.10950  -0.08812  -0.08639
 Alpha virt. eigenvalues --   -0.07380  -0.05609  -0.04166  -0.01509   0.00058
 Alpha virt. eigenvalues --    0.00381   0.01707   0.01811   0.02541   0.02657

  Beta  occ. eigenvalues --  -14.31723 -10.18093 -10.17888 -10.17886 -10.13683
  Beta  occ. eigenvalues --  -10.13364 -10.13363 -10.13154 -10.13154 -10.13111
  Beta  occ. eigenvalues --  -10.13110 -10.12309 -10.12307 -10.12278 -10.12278
  Beta  occ. eigenvalues --  -10.12224 -10.12224 -10.12207 -10.12207 -10.10528
  Beta  occ. eigenvalues --  -10.08964 -10.08962 -10.08314 -10.08291 -10.08260
  Beta  occ. eigenvalues --   -1.15893  -1.03406  -1.02971  -1.01184  -0.98714
  Beta  occ. eigenvalues --   -0.94338  -0.93757  -0.91812  -0.91788  -0.91598
  Beta  occ. eigenvalues --   -0.89722  -0.87704  -0.86610  -0.81472  -0.81256
  Beta  occ. eigenvalues --   -0.78853  -0.78119  -0.78053  -0.75434  -0.74172
  Beta  occ. eigenvalues --   -0.73564  -0.72523  -0.72399  -0.68509  -0.67288
  Beta  occ. eigenvalues --   -0.66603  -0.65975  -0.63897  -0.63867  -0.63530
  Beta  occ. eigenvalues --   -0.61817  -0.61616  -0.61056  -0.60713  -0.60417
  Beta  occ. eigenvalues --   -0.60242  -0.59772  -0.58874  -0.57499  -0.56965
  Beta  occ. eigenvalues --   -0.56854  -0.56190  -0.55136  -0.54311  -0.54078
  Beta  occ. eigenvalues --   -0.53819  -0.52777  -0.52450  -0.52368  -0.50383
  Beta  occ. eigenvalues --   -0.49284  -0.48534  -0.45853  -0.45836  -0.45548
  Beta  occ. eigenvalues --   -0.44560  -0.44505  -0.41193  -0.40195
  Beta virt. eigenvalues --   -0.24413  -0.11120  -0.10678  -0.10421  -0.08314
  Beta virt. eigenvalues --   -0.08220  -0.06482  -0.05512  -0.03684  -0.01414
  Beta virt. eigenvalues --    0.00126   0.00458   0.01765   0.01870   0.02611

 Mulliken charges and spin densities:
               1          2
     1  C   -0.087252  -0.014218
     2  C   -0.106843   0.032965
     3  C   -0.125559   0.028455
     4  C   -0.087248  -0.014219
     5  C    0.027814  -0.020115
     6  C   -0.125544   0.028462
     7  H    0.135287  -0.001688
     8  H    0.139976  -0.001558
     9  H    0.129066   0.000659
    10  H    0.139972  -0.001558
    11  C    0.013989   0.143241
    12  C   -0.136513  -0.053323
    13  C   -0.136518  -0.053308
    14  C   -0.100864   0.096120
    15  C   -0.100727   0.096117
    16  C   -0.045473   0.007171
    17  H    0.165387   0.002478
    18  H    0.165384   0.002478
    19  H    0.178116  -0.004170
    20  H    0.178114  -0.004171
    21  H    0.129067   0.000659
    22  N    0.089944   0.366248
    23  C   -0.075524  -0.018632
    24  C   -0.089439   0.096265
    25  C   -0.087278   0.096921
    26  C   -0.105296  -0.055780
    27  C   -0.105247  -0.057299
    28  C   -0.064924   0.129097
    29  H    0.180531  -0.004020
    30  H    0.178607  -0.004099
    31  H    0.148894   0.002724
    32  H    0.148194   0.002856
    33  H    0.151691  -0.006401
    34  C   -0.075496  -0.018637
    35  C   -0.089568   0.096276
    36  C   -0.087169   0.096931
    37  C   -0.105294  -0.055794
    38  C   -0.105269  -0.057298
    39  C   -0.064919   0.129107
    40  H    0.180537  -0.004020
    41  H    0.178618  -0.004100
    42  H    0.148895   0.002723
    43  H    0.148191   0.002857
    44  H    0.151691  -0.006401
 Sum of Mulliken charges =   1.00000   1.00000

 Dipole moment (field-independent basis, Debye):
    X=              4.4338    Y=              0.0000    Z=             -0.0003  Tot=              4.4338
 Quadrupole moment (field-independent basis, Debye-Ang):
   XX=            -63.8572   YY=            -98.8881   ZZ=           -140.5033
   XY=              0.0002   XZ=             -0.0016   YZ=              0.4025

 Normal termination of Gaussian 16 at Sun Jan 17 14:48:41 2021.
