 Gaussian 16, Revision A.03,
 Gaussian 16:  EM64L-G16RevA.03 25-Dec-2016

 ----------------------------------------------------------------------
 #P LC-wHPBE/TZVP iop(3/107=0190100000, 3/108=0190100000) scf=(conver=6
 ,fermi,ndamp=35,noincfock,novaracc,vshift=500,xqc)
 ----------------------------------------------------------------------

 ----------
 H19 C24 N1
 ----------
 Symbolic Z-matrix:
 Charge =  1 Multiplicity = 2

                         Standard orientation:
 ---------------------------------------------------------------------
 Center     Atomic      Atomic             Coordinates (Angstroms)
 Number     Number       Type             X           Y           Z
 ---------------------------------------------------------------------
      1          6           0       -6.129184    1.201496    0.030856
      2          6           0       -6.830271    0.000001   -0.000182
      3          6           0       -4.738958    1.200713    0.032197
      4          6           0       -6.129235   -1.201473   -0.031153
      5          6           0       -4.021751   -0.000032   -0.000031
      6          6           0       -4.738962   -1.200719   -0.032361
      7          1           0       -7.919539    0.000045   -0.000190
      8          1           0       -4.198073    2.145454    0.081149
      9          1           0       -6.668779   -2.147537   -0.063412
     10          1           0       -4.198148   -2.145504   -0.081256
     11          6           0       -2.536892   -0.000014    0.000063
     12          6           0       -1.813363   -0.924286    0.760077
     13          6           0       -1.813258    0.924290   -0.759786
     14          6           0       -0.426027   -0.922473    0.771159
     15          6           0       -0.425899    0.922498   -0.770636
     16          6           0        0.288344    0.000018    0.000311
     17          1           0       -2.347573   -1.638662    1.386050
     18          1           0       -2.347350    1.638674   -1.385851
     19          1           0        0.115370   -1.638494    1.387158
     20          1           0        0.115571    1.638578   -1.386504
     21          1           0       -6.668762    2.147543    0.063006
     22          7           0        1.704382   -0.000003    0.000499
     23          6           0        2.414266    1.227770   -0.004035
     24          6           0        3.559402    1.382015   -0.792108
     25          6           0        1.979956    2.301413    0.780170
     26          6           0        4.257371    2.583383   -0.786193
     27          6           0        2.673527    3.505213    0.765830
     28          6           0        3.817854    3.653503   -0.012423
     29          1           0        3.900046    0.551242   -1.407814
     30          1           0        1.092486    2.185578    1.400082
     31          1           0        5.147916    2.686607   -1.405370
     32          1           0        2.321511    4.331764    1.382280
     33          1           0        4.363183    4.595952   -0.015664
     34          6           0        2.414241   -1.227791    0.004406
     35          6           0        3.559682   -1.382189    0.792032
     36          6           0        1.979686   -2.301249   -0.779869
     37          6           0        4.257673   -2.583532    0.785597
     38          6           0        2.673287   -3.505060   -0.766028
     39          6           0        3.817885   -3.653507    0.011769
     40          1           0        3.900521   -0.551523    1.407763
     41          1           0        1.092008   -2.185299   -1.399468
     42          1           0        5.148466   -2.686887    1.404399
     43          1           0        2.321010   -4.331477   -1.382521
     44          1           0        4.363223   -4.595951    0.014691
 ---------------------------------------------------------------------

 SCF Done:  E(ULC-wHPBE) =  -979.866910405     A.U. after   19 cycles

 The electronic state is 2-A.
 Alpha  occ. eigenvalues --  -14.33075 -10.18549 -10.18319 -10.18317 -10.14334
 Alpha  occ. eigenvalues --  -10.13976 -10.13974 -10.13773 -10.13773 -10.13727
 Alpha  occ. eigenvalues --  -10.13727 -10.12896 -10.12896 -10.12708 -10.12707
 Alpha  occ. eigenvalues --  -10.12635 -10.12635 -10.12625 -10.12625 -10.10941
 Alpha  occ. eigenvalues --  -10.09432 -10.09430 -10.08761 -10.08705 -10.08692
 Alpha  occ. eigenvalues --   -1.17477  -1.04133  -1.03670  -1.01950  -0.99289
 Alpha  occ. eigenvalues --   -0.95033  -0.94436  -0.92429  -0.92418  -0.92223
 Alpha  occ. eigenvalues --   -0.90513  -0.88182  -0.87325  -0.82175  -0.81936
 Alpha  occ. eigenvalues --   -0.79540  -0.78718  -0.78605  -0.76018  -0.74632
 Alpha  occ. eigenvalues --   -0.74054  -0.73113  -0.72974  -0.69029  -0.67816
 Alpha  occ. eigenvalues --   -0.67265  -0.67077  -0.64403  -0.64353  -0.64005
 Alpha  occ. eigenvalues --   -0.62277  -0.62138  -0.61554  -0.61226  -0.60894
 Alpha  occ. eigenvalues --   -0.60687  -0.60264  -0.59265  -0.58516  -0.57689
 Alpha  occ. eigenvalues --   -0.57678  -0.56645  -0.55555  -0.55060  -0.54746
 Alpha  occ. eigenvalues --   -0.54401  -0.53332  -0.52885  -0.52801  -0.51734
 Alpha  occ. eigenvalues --   -0.49628  -0.48976  -0.47156  -0.46806  -0.46488
 Alpha  occ. eigenvalues --   -0.45313  -0.45239  -0.42163  -0.41513  -0.39553
 Alpha virt. eigenvalues --   -0.11607  -0.10869  -0.10750  -0.08594  -0.08428
 Alpha virt. eigenvalues --   -0.07170  -0.05368  -0.03921  -0.01312   0.00261
 Alpha virt. eigenvalues --    0.00588   0.01909   0.02012   0.02745   0.02857

  Beta  occ. eigenvalues --  -14.32244 -10.18568 -10.18371 -10.18369 -10.14143
  Beta  occ. eigenvalues --  -10.13835 -10.13833 -10.13633 -10.13632 -10.13590
  Beta  occ. eigenvalues --  -10.13590 -10.12764 -10.12762 -10.12748 -10.12748
  Beta  occ. eigenvalues --  -10.12693 -10.12693 -10.12676 -10.12676 -10.10959
  Beta  occ. eigenvalues --  -10.09395 -10.09393 -10.08742 -10.08720 -10.08688
  Beta  occ. eigenvalues --   -1.16410  -1.03900  -1.03474  -1.01676  -0.99179
  Beta  occ. eigenvalues --   -0.94810  -0.94241  -0.92282  -0.92265  -0.92078
  Beta  occ. eigenvalues --   -0.90181  -0.88144  -0.87054  -0.81917  -0.81693
  Beta  occ. eigenvalues --   -0.79289  -0.78557  -0.78488  -0.75856  -0.74574
  Beta  occ. eigenvalues --   -0.73970  -0.72940  -0.72819  -0.68911  -0.67683
  Beta  occ. eigenvalues --   -0.67001  -0.66373  -0.64279  -0.64246  -0.63914
  Beta  occ. eigenvalues --   -0.62199  -0.61996  -0.61420  -0.61092  -0.60784
  Beta  occ. eigenvalues --   -0.60616  -0.60129  -0.59225  -0.57883  -0.57331
  Beta  occ. eigenvalues --   -0.57241  -0.56530  -0.55471  -0.54651  -0.54420
  Beta  occ. eigenvalues --   -0.54161  -0.53120  -0.52787  -0.52702  -0.50690
  Beta  occ. eigenvalues --   -0.49585  -0.48831  -0.46130  -0.46082  -0.45808
  Beta  occ. eigenvalues --   -0.44825  -0.44759  -0.41430  -0.40410
  Beta virt. eigenvalues --   -0.24310  -0.10927  -0.10476  -0.10223  -0.08082
  Beta virt. eigenvalues --   -0.07998  -0.06241  -0.05271  -0.03425  -0.01216
  Beta virt. eigenvalues --    0.00329   0.00666   0.01967   0.02072   0.02815

 Mulliken charges and spin densities:
               1          2
     1  C   -0.087878  -0.014468
     2  C   -0.107897   0.032616
     3  C   -0.126707   0.028563
     4  C   -0.087874  -0.014469
     5  C    0.028345  -0.021178
     6  C   -0.126692   0.028570
     7  H    0.135805  -0.001663
     8  H    0.140615  -0.001552
     9  H    0.129612   0.000668
    10  H    0.140611  -0.001552
    11  C    0.013213   0.145252
    12  C   -0.137524  -0.055898
    13  C   -0.137529  -0.055884
    14  C   -0.100782   0.098336
    15  C   -0.100647   0.098334
    16  C   -0.046576   0.004423
    17  H    0.166272   0.002577
    18  H    0.166269   0.002576
    19  H    0.179135  -0.004259
    20  H    0.179134  -0.004260
    21  H    0.129613   0.000668
    22  N    0.089604   0.371427
    23  C   -0.075764  -0.021187
    24  C   -0.089810   0.098344
    25  C   -0.087614   0.098938
    26  C   -0.106277  -0.058014
    27  C   -0.106213  -0.059518
    28  C   -0.065555   0.131016
    29  H    0.181555  -0.004100
    30  H    0.179699  -0.004176
    31  H    0.149593   0.002814
    32  H    0.148907   0.002943
    33  H    0.152414  -0.006480
    34  C   -0.075736  -0.021193
    35  C   -0.089938   0.098355
    36  C   -0.087506   0.098949
    37  C   -0.106276  -0.058028
    38  C   -0.106235  -0.059517
    39  C   -0.065550   0.131026
    40  H    0.181562  -0.004100
    41  H    0.179709  -0.004177
    42  H    0.149594   0.002813
    43  H    0.148905   0.002944
    44  H    0.152414  -0.006480
 Sum of Mulliken charges =   1.00000   1.00000

 Dipole moment (field-independent basis, Debye):
    X=              4.4871    Y=              0.0000    Z=             -0.0003  Tot=              4.4871
 Quadrupole moment (field-independent basis, Debye-Ang):
   XX=            -64.0049   YY=            -98.8212   ZZ=           -140.4743
   XY=              0.0002   XZ=             -0.0016   YZ=              0.4035

 Normal termination of Gaussian 16 at Sun Jan 17 14:21:24 2021.
