 Gaussian 16, Revision A.03,
 Gaussian 16:  EM64L-G16RevA.03 25-Dec-2016

 ----------------------------------------------------------------------
 #P LC-wHPBE/TZVP iop(3/107=0182800000, 3/108=0182800000) scf=(conver=6
 ,fermi,ndamp=35,noincfock,novaracc,vshift=500,xqc)
 ----------------------------------------------------------------------

 ----------
 H19 C24 N1
 ----------
 Symbolic Z-matrix:
 Charge =  1 Multiplicity = 2

                         Standard orientation:
 ---------------------------------------------------------------------
 Center     Atomic      Atomic             Coordinates (Angstroms)
 Number     Number       Type             X           Y           Z
 ---------------------------------------------------------------------
      1          6           0       -6.129184    1.201496    0.030856
      2          6           0       -6.830271    0.000001   -0.000182
      3          6           0       -4.738958    1.200713    0.032197
      4          6           0       -6.129235   -1.201473   -0.031153
      5          6           0       -4.021751   -0.000032   -0.000031
      6          6           0       -4.738962   -1.200719   -0.032361
      7          1           0       -7.919539    0.000045   -0.000190
      8          1           0       -4.198073    2.145454    0.081149
      9          1           0       -6.668779   -2.147537   -0.063412
     10          1           0       -4.198148   -2.145504   -0.081256
     11          6           0       -2.536892   -0.000014    0.000063
     12          6           0       -1.813363   -0.924286    0.760077
     13          6           0       -1.813258    0.924290   -0.759786
     14          6           0       -0.426027   -0.922473    0.771159
     15          6           0       -0.425899    0.922498   -0.770636
     16          6           0        0.288344    0.000018    0.000311
     17          1           0       -2.347573   -1.638662    1.386050
     18          1           0       -2.347350    1.638674   -1.385851
     19          1           0        0.115370   -1.638494    1.387158
     20          1           0        0.115571    1.638578   -1.386504
     21          1           0       -6.668762    2.147543    0.063006
     22          7           0        1.704382   -0.000003    0.000499
     23          6           0        2.414266    1.227770   -0.004035
     24          6           0        3.559402    1.382015   -0.792108
     25          6           0        1.979956    2.301413    0.780170
     26          6           0        4.257371    2.583383   -0.786193
     27          6           0        2.673527    3.505213    0.765830
     28          6           0        3.817854    3.653503   -0.012423
     29          1           0        3.900046    0.551242   -1.407814
     30          1           0        1.092486    2.185578    1.400082
     31          1           0        5.147916    2.686607   -1.405370
     32          1           0        2.321511    4.331764    1.382280
     33          1           0        4.363183    4.595952   -0.015664
     34          6           0        2.414241   -1.227791    0.004406
     35          6           0        3.559682   -1.382189    0.792032
     36          6           0        1.979686   -2.301249   -0.779869
     37          6           0        4.257673   -2.583532    0.785597
     38          6           0        2.673287   -3.505060   -0.766028
     39          6           0        3.817885   -3.653507    0.011769
     40          1           0        3.900521   -0.551523    1.407763
     41          1           0        1.092008   -2.185299   -1.399468
     42          1           0        5.148466   -2.686887    1.404399
     43          1           0        2.321010   -4.331477   -1.382521
     44          1           0        4.363223   -4.595951    0.014691
 ---------------------------------------------------------------------

 SCF Done:  E(ULC-wHPBE) =  -979.857536266     A.U. after   20 cycles

 The electronic state is 2-A.
 Alpha  occ. eigenvalues --  -14.32596 -10.18126 -10.17886 -10.17885 -10.13918
 Alpha  occ. eigenvalues --  -10.13549 -10.13548 -10.13339 -10.13339 -10.13292
 Alpha  occ. eigenvalues --  -10.13292 -10.12470 -10.12470 -10.12302 -10.12300
 Alpha  occ. eigenvalues --  -10.12214 -10.12214 -10.12204 -10.12204 -10.10553
 Alpha  occ. eigenvalues --  -10.09043 -10.09041 -10.08377 -10.08319 -10.08307
 Alpha  occ. eigenvalues --   -1.16999  -1.03688  -1.03216  -1.01503  -0.98870
 Alpha  occ. eigenvalues --   -0.94607  -0.94000  -0.92005  -0.91987  -0.91790
 Alpha  occ. eigenvalues --   -0.90092  -0.87786  -0.86924  -0.81771  -0.81540
 Alpha  occ. eigenvalues --   -0.79145  -0.78324  -0.78213  -0.75637  -0.74270
 Alpha  occ. eigenvalues --   -0.73688  -0.72738  -0.72594  -0.68665  -0.67459
 Alpha  occ. eigenvalues --   -0.66898  -0.66707  -0.64059  -0.64011  -0.63660
 Alpha  occ. eigenvalues --   -0.61933  -0.61793  -0.61225  -0.60882  -0.60564
 Alpha  occ. eigenvalues --   -0.60349  -0.59939  -0.58950  -0.58166  -0.57350
 Alpha  occ. eigenvalues --   -0.57318  -0.56338  -0.55252  -0.54727  -0.54439
 Alpha  occ. eigenvalues --   -0.54089  -0.53017  -0.52581  -0.52501  -0.51420
 Alpha  occ. eigenvalues --   -0.49357  -0.48707  -0.46903  -0.46549  -0.46233
 Alpha  occ. eigenvalues --   -0.45067  -0.44989  -0.41930  -0.41299  -0.39345
 Alpha virt. eigenvalues --   -0.11777  -0.11039  -0.10930  -0.08790  -0.08618
 Alpha virt. eigenvalues --   -0.07359  -0.05585  -0.04142  -0.01489   0.00078
 Alpha virt. eigenvalues --    0.00402   0.01728   0.01831   0.02562   0.02677

  Beta  occ. eigenvalues --  -14.31775 -10.18140 -10.17935 -10.17934 -10.13728
  Beta  occ. eigenvalues --  -10.13411 -10.13409 -10.13201 -10.13201 -10.13158
  Beta  occ. eigenvalues --  -10.13157 -10.12354 -10.12352 -10.12324 -10.12324
  Beta  occ. eigenvalues --  -10.12270 -10.12270 -10.12253 -10.12253 -10.10571
  Beta  occ. eigenvalues --  -10.09006 -10.09004 -10.08356 -10.08334 -10.08303
  Beta  occ. eigenvalues --   -1.15944  -1.03455  -1.03020  -1.01232  -0.98760
  Beta  occ. eigenvalues --   -0.94384  -0.93805  -0.91858  -0.91835  -0.91646
  Beta  occ. eigenvalues --   -0.89767  -0.87748  -0.86654  -0.81516  -0.81299
  Beta  occ. eigenvalues --   -0.78896  -0.78163  -0.78096  -0.75476  -0.74212
  Beta  occ. eigenvalues --   -0.73604  -0.72565  -0.72440  -0.68549  -0.67327
  Beta  occ. eigenvalues --   -0.66643  -0.66015  -0.63935  -0.63905  -0.63568
  Beta  occ. eigenvalues --   -0.61855  -0.61654  -0.61093  -0.60751  -0.60454
  Beta  occ. eigenvalues --   -0.60279  -0.59808  -0.58909  -0.57537  -0.57001
  Beta  occ. eigenvalues --   -0.56892  -0.56224  -0.55170  -0.54344  -0.54113
  Beta  occ. eigenvalues --   -0.53853  -0.52812  -0.52484  -0.52401  -0.50414
  Beta  occ. eigenvalues --   -0.49314  -0.48564  -0.45880  -0.45860  -0.45574
  Beta  occ. eigenvalues --   -0.44586  -0.44530  -0.41217  -0.40217
  Beta virt. eigenvalues --   -0.24403  -0.11100  -0.10658  -0.10401  -0.08290
  Beta virt. eigenvalues --   -0.08197  -0.06458  -0.05488  -0.03658  -0.01394
  Beta virt. eigenvalues --    0.00146   0.00479   0.01785   0.01890   0.02632

 Mulliken charges and spin densities:
               1          2
     1  C   -0.087312  -0.014248
     2  C   -0.106944   0.032937
     3  C   -0.125669   0.028472
     4  C   -0.087308  -0.014249
     5  C    0.027868  -0.020230
     6  C   -0.125654   0.028479
     7  H    0.135336  -0.001686
     8  H    0.140037  -0.001558
     9  H    0.129118   0.000660
    10  H    0.140033  -0.001558
    11  C    0.013916   0.143453
    12  C   -0.136612  -0.053578
    13  C   -0.136617  -0.053563
    14  C   -0.100853   0.096340
    15  C   -0.100717   0.096338
    16  C   -0.045578   0.006907
    17  H    0.165472   0.002488
    18  H    0.165470   0.002488
    19  H    0.178215  -0.004180
    20  H    0.178213  -0.004180
    21  H    0.129119   0.000660
    22  N    0.089913   0.366760
    23  C   -0.075545  -0.018875
    24  C   -0.089471   0.096452
    25  C   -0.087308   0.097108
    26  C   -0.105391  -0.055983
    27  C   -0.105342  -0.057503
    28  C   -0.064986   0.129261
    29  H    0.180628  -0.004027
    30  H    0.178710  -0.004106
    31  H    0.148960   0.002732
    32  H    0.148261   0.002864
    33  H    0.151758  -0.006407
    34  C   -0.075517  -0.018881
    35  C   -0.089600   0.096464
    36  C   -0.087199   0.097119
    37  C   -0.105390  -0.055996
    38  C   -0.105364  -0.057502
    39  C   -0.064981   0.129271
    40  H    0.180635  -0.004027
    41  H    0.178721  -0.004107
    42  H    0.148960   0.002732
    43  H    0.148258   0.002865
    44  H    0.151758  -0.006408
 Sum of Mulliken charges =   1.00000   1.00000

 Dipole moment (field-independent basis, Debye):
    X=              4.4388    Y=              0.0000    Z=             -0.0003  Tot=              4.4388
 Quadrupole moment (field-independent basis, Debye-Ang):
   XX=            -63.8719   YY=            -98.8821   ZZ=           -140.5005
   XY=              0.0002   XZ=             -0.0016   YZ=              0.4025

 Normal termination of Gaussian 16 at Sun Jan 17 16:37:32 2021.
