 Gaussian 16, Revision A.03,
 Gaussian 16:  EM64L-G16RevA.03 25-Dec-2016

 ----------------------------------------------------------------------
 #P LC-wHPBE/TZVP iop(3/107=0186800000, 3/108=0186800000) scf=(conver=6
 ,fermi,ndamp=35,noincfock,novaracc,vshift=500,xqc)
 ----------------------------------------------------------------------

 ----------
 H19 C24 N1
 ----------
 Symbolic Z-matrix:
 Charge =  1 Multiplicity = 2

                         Standard orientation:
 ---------------------------------------------------------------------
 Center     Atomic      Atomic             Coordinates (Angstroms)
 Number     Number       Type             X           Y           Z
 ---------------------------------------------------------------------
      1          6           0       -6.129184    1.201496    0.030856
      2          6           0       -6.830271    0.000001   -0.000182
      3          6           0       -4.738958    1.200713    0.032197
      4          6           0       -6.129235   -1.201473   -0.031153
      5          6           0       -4.021751   -0.000032   -0.000031
      6          6           0       -4.738962   -1.200719   -0.032361
      7          1           0       -7.919539    0.000045   -0.000190
      8          1           0       -4.198073    2.145454    0.081149
      9          1           0       -6.668779   -2.147537   -0.063412
     10          1           0       -4.198148   -2.145504   -0.081256
     11          6           0       -2.536892   -0.000014    0.000063
     12          6           0       -1.813363   -0.924286    0.760077
     13          6           0       -1.813258    0.924290   -0.759786
     14          6           0       -0.426027   -0.922473    0.771159
     15          6           0       -0.425899    0.922498   -0.770636
     16          6           0        0.288344    0.000018    0.000311
     17          1           0       -2.347573   -1.638662    1.386050
     18          1           0       -2.347350    1.638674   -1.385851
     19          1           0        0.115370   -1.638494    1.387158
     20          1           0        0.115571    1.638578   -1.386504
     21          1           0       -6.668762    2.147543    0.063006
     22          7           0        1.704382   -0.000003    0.000499
     23          6           0        2.414266    1.227770   -0.004035
     24          6           0        3.559402    1.382015   -0.792108
     25          6           0        1.979956    2.301413    0.780170
     26          6           0        4.257371    2.583383   -0.786193
     27          6           0        2.673527    3.505213    0.765830
     28          6           0        3.817854    3.653503   -0.012423
     29          1           0        3.900046    0.551242   -1.407814
     30          1           0        1.092486    2.185578    1.400082
     31          1           0        5.147916    2.686607   -1.405370
     32          1           0        2.321511    4.331764    1.382280
     33          1           0        4.363183    4.595952   -0.015664
     34          6           0        2.414241   -1.227791    0.004406
     35          6           0        3.559682   -1.382189    0.792032
     36          6           0        1.979686   -2.301249   -0.779869
     37          6           0        4.257673   -2.583532    0.785597
     38          6           0        2.673287   -3.505060   -0.766028
     39          6           0        3.817885   -3.653507    0.011769
     40          1           0        3.900521   -0.551523    1.407763
     41          1           0        1.092008   -2.185299   -1.399468
     42          1           0        5.148466   -2.686887    1.404399
     43          1           0        2.321010   -4.331477   -1.382521
     44          1           0        4.363223   -4.595951    0.014691
 ---------------------------------------------------------------------

 SCF Done:  E(ULC-wHPBE) =  -979.862684057     A.U. after   19 cycles

 The electronic state is 2-A.
 Alpha  occ. eigenvalues --  -14.32860 -10.18357 -10.18124 -10.18123 -10.14145
 Alpha  occ. eigenvalues --  -10.13782 -10.13780 -10.13578 -10.13578 -10.13532
 Alpha  occ. eigenvalues --  -10.13532 -10.12704 -10.12704 -10.12523 -10.12522
 Alpha  occ. eigenvalues --  -10.12446 -10.12446 -10.12436 -10.12436 -10.10764
 Alpha  occ. eigenvalues --  -10.09254 -10.09252 -10.08586 -10.08529 -10.08516
 Alpha  occ. eigenvalues --   -1.17262  -1.03931  -1.03466  -1.01748  -0.99098
 Alpha  occ. eigenvalues --   -0.94840  -0.94240  -0.92237  -0.92224  -0.92029
 Alpha  occ. eigenvalues --   -0.90323  -0.88002  -0.87143  -0.81993  -0.81757
 Alpha  occ. eigenvalues --   -0.79362  -0.78541  -0.78429  -0.75846  -0.74468
 Alpha  occ. eigenvalues --   -0.73888  -0.72944  -0.72803  -0.68865  -0.67655
 Alpha  occ. eigenvalues --   -0.67100  -0.66911  -0.64249  -0.64198  -0.63850
 Alpha  occ. eigenvalues --   -0.62123  -0.61984  -0.61405  -0.61072  -0.60745
 Alpha  occ. eigenvalues --   -0.60536  -0.60117  -0.59122  -0.58359  -0.57536
 Alpha  occ. eigenvalues --   -0.57517  -0.56506  -0.55418  -0.54910  -0.54608
 Alpha  occ. eigenvalues --   -0.54261  -0.53190  -0.52749  -0.52665  -0.51593
 Alpha  occ. eigenvalues --   -0.49505  -0.48854  -0.47042  -0.46692  -0.46374
 Alpha  occ. eigenvalues --   -0.45203  -0.45128  -0.42059  -0.41416  -0.39459
 Alpha virt. eigenvalues --   -0.11682  -0.10946  -0.10831  -0.08681  -0.08514
 Alpha virt. eigenvalues --   -0.07255  -0.05464  -0.04019  -0.01391   0.00179
 Alpha virt. eigenvalues --    0.00505   0.01828   0.01931   0.02664   0.02777

  Beta  occ. eigenvalues --  -14.32033 -10.18374 -10.18175 -10.18174 -10.13954
  Beta  occ. eigenvalues --  -10.13642 -10.13641 -10.13439 -10.13439 -10.13396
  Beta  occ. eigenvalues --  -10.13396 -10.12577 -10.12576 -10.12557 -10.12557
  Beta  occ. eigenvalues --  -10.12503 -10.12503 -10.12486 -10.12486 -10.10782
  Beta  occ. eigenvalues --  -10.09218 -10.09216 -10.08566 -10.08544 -10.08512
  Beta  occ. eigenvalues --   -1.16200  -1.03698  -1.03270  -1.01476  -0.98988
  Beta  occ. eigenvalues --   -0.94618  -0.94045  -0.92090  -0.92072  -0.91884
  Beta  occ. eigenvalues --   -0.89994  -0.87964  -0.86873  -0.81737  -0.81515
  Beta  occ. eigenvalues --   -0.79111  -0.78380  -0.78312  -0.75685  -0.74410
  Beta  occ. eigenvalues --   -0.73804  -0.72771  -0.72649  -0.68748  -0.67523
  Beta  occ. eigenvalues --   -0.66840  -0.66212  -0.64124  -0.64092  -0.63758
  Beta  occ. eigenvalues --   -0.62045  -0.61843  -0.61272  -0.60939  -0.60635
  Beta  occ. eigenvalues --   -0.60465  -0.59984  -0.59082  -0.57728  -0.57182
  Beta  occ. eigenvalues --   -0.57085  -0.56391  -0.55335  -0.54513  -0.54282
  Beta  occ. eigenvalues --   -0.54023  -0.52981  -0.52652  -0.52566  -0.50567
  Beta  occ. eigenvalues --   -0.49462  -0.48710  -0.46018  -0.45983  -0.45704
  Beta  occ. eigenvalues --   -0.44719  -0.44657  -0.41334  -0.40323
  Beta virt. eigenvalues --   -0.24351  -0.11004  -0.10557  -0.10303  -0.08175
  Beta virt. eigenvalues --   -0.08088  -0.06338  -0.05367  -0.03528  -0.01296
  Beta virt. eigenvalues --    0.00247   0.00583   0.01886   0.01991   0.02734

 Mulliken charges and spin densities:
               1          2
     1  C   -0.087617  -0.014330
     2  C   -0.107468   0.032688
     3  C   -0.126236   0.028470
     4  C   -0.087613  -0.014331
     5  C    0.028143  -0.020712
     6  C   -0.126221   0.028476
     7  H    0.135578  -0.001669
     8  H    0.140339  -0.001552
     9  H    0.129374   0.000663
    10  H    0.140335  -0.001552
    11  C    0.013528   0.144345
    12  C   -0.137116  -0.054827
    13  C   -0.137121  -0.054812
    14  C   -0.100813   0.097416
    15  C   -0.100677   0.097414
    16  C   -0.046119   0.005531
    17  H    0.165899   0.002534
    18  H    0.165897   0.002533
    19  H    0.178705  -0.004222
    20  H    0.178703  -0.004222
    21  H    0.129375   0.000663
    22  N    0.089758   0.369353
    23  C   -0.075654  -0.020158
    24  C   -0.089649   0.097553
    25  C   -0.087466   0.098149
    26  C   -0.105877  -0.057152
    27  C   -0.105817  -0.058652
    28  C   -0.065282   0.130305
    29  H    0.181134  -0.004070
    30  H    0.179256  -0.004146
    31  H    0.149304   0.002778
    32  H    0.148614   0.002908
    33  H    0.152116  -0.006451
    34  C   -0.075626  -0.020163
    35  C   -0.089778   0.097564
    36  C   -0.087358   0.098159
    37  C   -0.105875  -0.057165
    38  C   -0.105839  -0.058651
    39  C   -0.065278   0.130315
    40  H    0.181140  -0.004070
    41  H    0.179266  -0.004147
    42  H    0.149305   0.002778
    43  H    0.148612   0.002909
    44  H    0.152116  -0.006452
 Sum of Mulliken charges =   1.00000   1.00000

 Dipole moment (field-independent basis, Debye):
    X=              4.4682    Y=              0.0000    Z=             -0.0003  Tot=              4.4682
 Quadrupole moment (field-independent basis, Debye-Ang):
   XX=            -63.9497   YY=            -98.8457   ZZ=           -140.4860
   XY=              0.0002   XZ=             -0.0016   YZ=              0.4034

 Normal termination of Gaussian 16 at Sun Jan 17 13:54:57 2021.
