 Gaussian 16, Revision A.03,
 Gaussian 16:  EM64L-G16RevA.03 25-Dec-2016

 ----------------------------------------------------------------------
 #P LC-wHPBE/TZVP iop(3/107=0183500000, 3/108=0183500000) scf=(conver=6
 ,fermi,ndamp=35,noincfock,novaracc,vshift=500,xqc)
 ----------------------------------------------------------------------

 ----------
 H19 C24 N1
 ----------
 Symbolic Z-matrix:
 Charge =  1 Multiplicity = 2

                         Standard orientation:
 ---------------------------------------------------------------------
 Center     Atomic      Atomic             Coordinates (Angstroms)
 Number     Number       Type             X           Y           Z
 ---------------------------------------------------------------------
      1          6           0       -6.129184    1.201496    0.030856
      2          6           0       -6.830271    0.000001   -0.000182
      3          6           0       -4.738958    1.200713    0.032197
      4          6           0       -6.129235   -1.201473   -0.031153
      5          6           0       -4.021751   -0.000032   -0.000031
      6          6           0       -4.738962   -1.200719   -0.032361
      7          1           0       -7.919539    0.000045   -0.000190
      8          1           0       -4.198073    2.145454    0.081149
      9          1           0       -6.668779   -2.147537   -0.063412
     10          1           0       -4.198148   -2.145504   -0.081256
     11          6           0       -2.536892   -0.000014    0.000063
     12          6           0       -1.813363   -0.924286    0.760077
     13          6           0       -1.813258    0.924290   -0.759786
     14          6           0       -0.426027   -0.922473    0.771159
     15          6           0       -0.425899    0.922498   -0.770636
     16          6           0        0.288344    0.000018    0.000311
     17          1           0       -2.347573   -1.638662    1.386050
     18          1           0       -2.347350    1.638674   -1.385851
     19          1           0        0.115370   -1.638494    1.387158
     20          1           0        0.115571    1.638578   -1.386504
     21          1           0       -6.668762    2.147543    0.063006
     22          7           0        1.704382   -0.000003    0.000499
     23          6           0        2.414266    1.227770   -0.004035
     24          6           0        3.559402    1.382015   -0.792108
     25          6           0        1.979956    2.301413    0.780170
     26          6           0        4.257371    2.583383   -0.786193
     27          6           0        2.673527    3.505213    0.765830
     28          6           0        3.817854    3.653503   -0.012423
     29          1           0        3.900046    0.551242   -1.407814
     30          1           0        1.092486    2.185578    1.400082
     31          1           0        5.147916    2.686607   -1.405370
     32          1           0        2.321511    4.331764    1.382280
     33          1           0        4.363183    4.595952   -0.015664
     34          6           0        2.414241   -1.227791    0.004406
     35          6           0        3.559682   -1.382189    0.792032
     36          6           0        1.979686   -2.301249   -0.779869
     37          6           0        4.257673   -2.583532    0.785597
     38          6           0        2.673287   -3.505060   -0.766028
     39          6           0        3.817885   -3.653507    0.011769
     40          1           0        3.900521   -0.551523    1.407763
     41          1           0        1.092008   -2.185299   -1.399468
     42          1           0        5.148466   -2.686887    1.404399
     43          1           0        2.321010   -4.331477   -1.382521
     44          1           0        4.363223   -4.595951    0.014691
 ---------------------------------------------------------------------

 SCF Done:  E(ULC-wHPBE) =  -979.858438984     A.U. after   20 cycles

 The electronic state is 2-A.
 Alpha  occ. eigenvalues --  -14.32642 -10.18166 -10.17928 -10.17926 -10.13958
 Alpha  occ. eigenvalues --  -10.13590 -10.13589 -10.13380 -10.13380 -10.13333
 Alpha  occ. eigenvalues --  -10.13333 -10.12510 -10.12510 -10.12341 -10.12339
 Alpha  occ. eigenvalues --  -10.12254 -10.12254 -10.12245 -10.12244 -10.10590
 Alpha  occ. eigenvalues --  -10.09081 -10.09079 -10.08414 -10.08357 -10.08344
 Alpha  occ. eigenvalues --   -1.17045  -1.03731  -1.03259  -1.01546  -0.98910
 Alpha  occ. eigenvalues --   -0.94648  -0.94042  -0.92045  -0.92028  -0.91832
 Alpha  occ. eigenvalues --   -0.90132  -0.87824  -0.86962  -0.81810  -0.81578
 Alpha  occ. eigenvalues --   -0.79183  -0.78362  -0.78251  -0.75673  -0.74305
 Alpha  occ. eigenvalues --   -0.73723  -0.72774  -0.72631  -0.68700  -0.67494
 Alpha  occ. eigenvalues --   -0.66933  -0.66742  -0.64093  -0.64044  -0.63693
 Alpha  occ. eigenvalues --   -0.61966  -0.61827  -0.61257  -0.60916  -0.60596
 Alpha  occ. eigenvalues --   -0.60381  -0.59970  -0.58980  -0.58200  -0.57383
 Alpha  occ. eigenvalues --   -0.57353  -0.56368  -0.55281  -0.54759  -0.54469
 Alpha  occ. eigenvalues --   -0.54119  -0.53048  -0.52610  -0.52530  -0.51451
 Alpha  occ. eigenvalues --   -0.49384  -0.48733  -0.46928  -0.46574  -0.46258
 Alpha  occ. eigenvalues --   -0.45091  -0.45013  -0.41952  -0.41321  -0.39365
 Alpha virt. eigenvalues --   -0.11760  -0.11022  -0.10912  -0.08771  -0.08599
 Alpha virt. eigenvalues --   -0.07341  -0.05564  -0.04120  -0.01472   0.00096
 Alpha virt. eigenvalues --    0.00420   0.01745   0.01849   0.02580   0.02695

  Beta  occ. eigenvalues --  -14.31820 -10.18182 -10.17977 -10.17975 -10.13768
  Beta  occ. eigenvalues --  -10.13452 -10.13450 -10.13242 -10.13242 -10.13199
  Beta  occ. eigenvalues --  -10.13198 -10.12394 -10.12392 -10.12365 -10.12364
  Beta  occ. eigenvalues --  -10.12310 -10.12310 -10.12294 -10.12294 -10.10608
  Beta  occ. eigenvalues --  -10.09044 -10.09042 -10.08393 -10.08371 -10.08340
  Beta  occ. eigenvalues --   -1.15988  -1.03498  -1.03064  -1.01275  -0.98800
  Beta  occ. eigenvalues --   -0.94425  -0.93847  -0.91899  -0.91876  -0.91687
  Beta  occ. eigenvalues --   -0.89807  -0.87786  -0.86693  -0.81555  -0.81337
  Beta  occ. eigenvalues --   -0.78934  -0.78201  -0.78133  -0.75512  -0.74247
  Beta  occ. eigenvalues --   -0.73640  -0.72601  -0.72477  -0.68584  -0.67361
  Beta  occ. eigenvalues --   -0.66677  -0.66049  -0.63968  -0.63938  -0.63602
  Beta  occ. eigenvalues --   -0.61888  -0.61687  -0.61124  -0.60784  -0.60486
  Beta  occ. eigenvalues --   -0.60311  -0.59839  -0.58940  -0.57570  -0.57033
  Beta  occ. eigenvalues --   -0.56926  -0.56253  -0.55199  -0.54374  -0.54142
  Beta  occ. eigenvalues --   -0.53883  -0.52841  -0.52513  -0.52430  -0.50441
  Beta  occ. eigenvalues --   -0.49340  -0.48590  -0.45905  -0.45882  -0.45597
  Beta  occ. eigenvalues --   -0.44609  -0.44553  -0.41238  -0.40236
  Beta virt. eigenvalues --   -0.24394  -0.11083  -0.10640  -0.10383  -0.08270
  Beta virt. eigenvalues --   -0.08178  -0.06436  -0.05467  -0.03635  -0.01376
  Beta virt. eigenvalues --    0.00164   0.00498   0.01803   0.01908   0.02650

 Mulliken charges and spin densities:
               1          2
     1  C   -0.087365  -0.014274
     2  C   -0.107032   0.032914
     3  C   -0.125766   0.028488
     4  C   -0.087361  -0.014275
     5  C    0.027915  -0.020330
     6  C   -0.125751   0.028495
     7  H    0.135379  -0.001684
     8  H    0.140091  -0.001558
     9  H    0.129164   0.000661
    10  H    0.140087  -0.001558
    11  C    0.013851   0.143640
    12  C   -0.136698  -0.053802
    13  C   -0.136703  -0.053787
    14  C   -0.100843   0.096533
    15  C   -0.100707   0.096531
    16  C   -0.045671   0.006675
    17  H    0.165547   0.002497
    18  H    0.165545   0.002496
    19  H    0.178302  -0.004187
    20  H    0.178300  -0.004188
    21  H    0.129164   0.000662
    22  N    0.089885   0.367207
    23  C   -0.075564  -0.019089
    24  C   -0.089500   0.096617
    25  C   -0.087335   0.097273
    26  C   -0.105476  -0.056161
    27  C   -0.105425  -0.057682
    28  C   -0.065040   0.129406
    29  H    0.180714  -0.004033
    30  H    0.178801  -0.004113
    31  H    0.149017   0.002739
    32  H    0.148319   0.002871
    33  H    0.151818  -0.006413
    34  C   -0.075536  -0.019095
    35  C   -0.089629   0.096629
    36  C   -0.087227   0.097283
    37  C   -0.105474  -0.056174
    38  C   -0.105447  -0.057681
    39  C   -0.065035   0.129416
    40  H    0.180720  -0.004033
    41  H    0.178811  -0.004114
    42  H    0.149018   0.002739
    43  H    0.148317   0.002872
    44  H    0.151818  -0.006413
 Sum of Mulliken charges =   1.00000   1.00000

 Dipole moment (field-independent basis, Debye):
    X=              4.4431    Y=              0.0000    Z=             -0.0003  Tot=              4.4431
 Quadrupole moment (field-independent basis, Debye-Ang):
   XX=            -63.8847   YY=            -98.8768   ZZ=           -140.4979
   XY=              0.0002   XZ=             -0.0016   YZ=              0.4026

 Normal termination of Gaussian 16 at Sun Jan 17 16:10:19 2021.
