 Gaussian 16, Revision A.03,
 Gaussian 16:  EM64L-G16RevA.03 25-Dec-2016

 ----------------------------------------------------------------------
 #P LC-wHPBE/TZVP iop(3/107=0221900000, 3/108=0221900000) scf=(conver=6
 ,fermi,ndamp=35,noincfock,novaracc,vshift=500,xqc)
 ----------------------------------------------------------------------

 ----------
 H19 C24 N1
 ----------
 Symbolic Z-matrix:
 Charge =  1 Multiplicity = 2

                         Standard orientation:
 ---------------------------------------------------------------------
 Center     Atomic      Atomic             Coordinates (Angstroms)
 Number     Number       Type             X           Y           Z
 ---------------------------------------------------------------------
      1          6           0       -6.129184    1.201496    0.030856
      2          6           0       -6.830271    0.000001   -0.000182
      3          6           0       -4.738958    1.200713    0.032197
      4          6           0       -6.129235   -1.201473   -0.031153
      5          6           0       -4.021751   -0.000032   -0.000031
      6          6           0       -4.738962   -1.200719   -0.032361
      7          1           0       -7.919539    0.000045   -0.000190
      8          1           0       -4.198073    2.145454    0.081149
      9          1           0       -6.668779   -2.147537   -0.063412
     10          1           0       -4.198148   -2.145504   -0.081256
     11          6           0       -2.536892   -0.000014    0.000063
     12          6           0       -1.813363   -0.924286    0.760077
     13          6           0       -1.813258    0.924290   -0.759786
     14          6           0       -0.426027   -0.922473    0.771159
     15          6           0       -0.425899    0.922498   -0.770636
     16          6           0        0.288344    0.000018    0.000311
     17          1           0       -2.347573   -1.638662    1.386050
     18          1           0       -2.347350    1.638674   -1.385851
     19          1           0        0.115370   -1.638494    1.387158
     20          1           0        0.115571    1.638578   -1.386504
     21          1           0       -6.668762    2.147543    0.063006
     22          7           0        1.704382   -0.000003    0.000499
     23          6           0        2.414266    1.227770   -0.004035
     24          6           0        3.559402    1.382015   -0.792108
     25          6           0        1.979956    2.301413    0.780170
     26          6           0        4.257371    2.583383   -0.786193
     27          6           0        2.673527    3.505213    0.765830
     28          6           0        3.817854    3.653503   -0.012423
     29          1           0        3.900046    0.551242   -1.407814
     30          1           0        1.092486    2.185578    1.400082
     31          1           0        5.147916    2.686607   -1.405370
     32          1           0        2.321511    4.331764    1.382280
     33          1           0        4.363183    4.595952   -0.015664
     34          6           0        2.414241   -1.227791    0.004406
     35          6           0        3.559682   -1.382189    0.792032
     36          6           0        1.979686   -2.301249   -0.779869
     37          6           0        4.257673   -2.583532    0.785597
     38          6           0        2.673287   -3.505060   -0.766028
     39          6           0        3.817885   -3.653507    0.011769
     40          1           0        3.900521   -0.551523    1.407763
     41          1           0        1.092008   -2.185299   -1.399468
     42          1           0        5.148466   -2.686887    1.404399
     43          1           0        2.321010   -4.331477   -1.382521
     44          1           0        4.363223   -4.595951    0.014691
 ---------------------------------------------------------------------

 SCF Done:  E(ULC-wHPBE) =  -979.906283081     A.U. after   18 cycles

 The electronic state is 2-A.
 Alpha  occ. eigenvalues --  -14.35128 -10.20400 -10.20186 -10.20184 -10.16156
 Alpha  occ. eigenvalues --  -10.15835 -10.15833 -10.15640 -10.15639 -10.15594
 Alpha  occ. eigenvalues --  -10.15594 -10.14739 -10.14739 -10.14491 -10.14489
 Alpha  occ. eigenvalues --  -10.14449 -10.14449 -10.14440 -10.14440 -10.12660
 Alpha  occ. eigenvalues --  -10.11154 -10.11152 -10.10467 -10.10417 -10.10402
 Alpha  occ. eigenvalues --   -1.19537  -1.06073  -1.05628  -1.03880  -1.01133
 Alpha  occ. eigenvalues --   -0.96876  -0.96304  -0.94264  -0.94260  -0.94069
 Alpha  occ. eigenvalues --   -0.92317  -0.89913  -0.89059  -0.83878  -0.83619
 Alpha  occ. eigenvalues --   -0.81220  -0.80381  -0.80260  -0.77624  -0.76189
 Alpha  occ. eigenvalues --   -0.75617  -0.74684  -0.74554  -0.70558  -0.69310
 Alpha  occ. eigenvalues --   -0.68807  -0.68608  -0.65835  -0.65785  -0.65441
 Alpha  occ. eigenvalues --   -0.63698  -0.63563  -0.62930  -0.62654  -0.62276
 Alpha  occ. eigenvalues --   -0.62084  -0.61629  -0.60596  -0.59963  -0.59151
 Alpha  occ. eigenvalues --   -0.59092  -0.57937  -0.56816  -0.56433  -0.56010
 Alpha  occ. eigenvalues --   -0.55679  -0.54639  -0.54130  -0.54045  -0.53013
 Alpha  occ. eigenvalues --   -0.50766  -0.50104  -0.48172  -0.47816  -0.47492
 Alpha  occ. eigenvalues --   -0.46283  -0.46220  -0.43100  -0.42376  -0.40387
 Alpha virt. eigenvalues --   -0.10963  -0.10211  -0.10058  -0.07841  -0.07688
 Alpha virt. eigenvalues --   -0.06442  -0.04553  -0.03083  -0.00625   0.00972
 Alpha virt. eigenvalues --    0.01306   0.02605   0.02704   0.03447   0.03549

  Beta  occ. eigenvalues --  -14.34258 -10.20434 -10.20252 -10.20250 -10.15956
  Beta  occ. eigenvalues --  -10.15683 -10.15681 -10.15490 -10.15490 -10.15448
  Beta  occ. eigenvalues --  -10.15448 -10.14582 -10.14582 -10.14558 -10.14556
  Beta  occ. eigenvalues --  -10.14517 -10.14517 -10.14502 -10.14502 -10.12683
  Beta  occ. eigenvalues --  -10.11116 -10.11114 -10.10451 -10.10434 -10.10395
  Beta  occ. eigenvalues --   -1.18423  -1.05838  -1.05429  -1.03593  -1.01021
  Beta  occ. eigenvalues --   -0.96651  -0.96108  -0.94112  -0.94107  -0.93922
  Beta  occ. eigenvalues --   -0.91958  -0.89875  -0.88776  -0.83609  -0.83364
  Beta  occ. eigenvalues --   -0.80957  -0.80217  -0.80143  -0.77459  -0.76130
  Beta  occ. eigenvalues --   -0.75531  -0.74508  -0.74397  -0.70431  -0.69172
  Beta  occ. eigenvalues --   -0.68491  -0.67858  -0.65711  -0.65672  -0.65350
  Beta  occ. eigenvalues --   -0.63618  -0.63409  -0.62788  -0.62510  -0.62158
  Beta  occ. eigenvalues --   -0.62008  -0.61479  -0.60555  -0.59306  -0.58691
  Beta  occ. eigenvalues --   -0.58656  -0.57815  -0.56729  -0.55912  -0.55688
  Beta  occ. eigenvalues --   -0.55422  -0.54391  -0.54027  -0.53946  -0.51803
  Beta  occ. eigenvalues --   -0.50721  -0.49948  -0.47111  -0.46968  -0.46733
  Beta  occ. eigenvalues --   -0.45758  -0.45658  -0.42291  -0.41191
  Beta virt. eigenvalues --   -0.23958  -0.10268  -0.09776  -0.09535  -0.07270
  Beta virt. eigenvalues --   -0.07210  -0.05398  -0.04454  -0.02526  -0.00532
  Beta virt. eigenvalues --    0.01041   0.01384   0.02662   0.02767   0.03514

 Mulliken charges and spin densities:
               1          2
     1  C   -0.090892  -0.016125
     2  C   -0.112463   0.032702
     3  C   -0.131612   0.029915
     4  C   -0.090888  -0.016126
     5  C    0.029575  -0.025589
     6  C   -0.131596   0.029922
     7  H    0.138635  -0.001645
     8  H    0.143938  -0.001580
     9  H    0.132559   0.000738
    10  H    0.143934  -0.001581
    11  C    0.010025   0.154705
    12  C   -0.141528  -0.066820
    13  C   -0.141532  -0.066806
    14  C   -0.100839   0.107597
    15  C   -0.100708   0.107595
    16  C   -0.051776  -0.006773
    17  H    0.170377   0.002992
    18  H    0.170375   0.002991
    19  H    0.183816  -0.004623
    20  H    0.183814  -0.004623
    21  H    0.132560   0.000738
    22  N    0.087633   0.390391
    23  C   -0.077509  -0.031734
    24  C   -0.091807   0.106692
    25  C   -0.089565   0.107218
    26  C   -0.110355  -0.067269
    27  C   -0.110241  -0.068798
    28  C   -0.068721   0.139073
    29  H    0.186116  -0.004402
    30  H    0.184457  -0.004479
    31  H    0.152887   0.003180
    32  H    0.152242   0.003305
    33  H    0.155789  -0.006789
    34  C   -0.077481  -0.031741
    35  C   -0.091932   0.106704
    36  C   -0.089461   0.107229
    37  C   -0.110354  -0.067283
    38  C   -0.110262  -0.068799
    39  C   -0.068716   0.139084
    40  H    0.186122  -0.004402
    41  H    0.184468  -0.004480
    42  H    0.152888   0.003180
    43  H    0.152240   0.003306
    44  H    0.155789  -0.006790
 Sum of Mulliken charges =   1.00000   1.00000

 Dipole moment (field-independent basis, Debye):
    X=              4.6439    Y=              0.0000    Z=             -0.0002  Tot=              4.6439
 Quadrupole moment (field-independent basis, Debye-Ang):
   XX=            -64.4358   YY=            -98.5894   ZZ=           -140.3691
   XY=              0.0001   XZ=             -0.0016   YZ=              0.4038

 Normal termination of Gaussian 16 at Sun Jan 17 12:05:59 2021.
