 Gaussian 16, Revision A.03,
 Gaussian 16:  EM64L-G16RevA.03 25-Dec-2016

 ----------------------------------------------------------------------
 #P LC-wHPBE/TZVP iop(3/107=0221900000, 3/108=0221900000) scf=(conver=6
 ,fermi,ndamp=35,noincfock,novaracc,vshift=500,xqc)
 ----------------------------------------------------------------------

 ----------
 H19 C24 N1
 ----------
 Symbolic Z-matrix:
 Charge =  0 Multiplicity = 1

                         Standard orientation:
 ---------------------------------------------------------------------
 Center     Atomic      Atomic             Coordinates (Angstroms)
 Number     Number       Type             X           Y           Z
 ---------------------------------------------------------------------
      1          6           0       -6.129184    1.201496    0.030856
      2          6           0       -6.830271    0.000001   -0.000182
      3          6           0       -4.738958    1.200713    0.032197
      4          6           0       -6.129235   -1.201473   -0.031153
      5          6           0       -4.021751   -0.000032   -0.000031
      6          6           0       -4.738962   -1.200719   -0.032361
      7          1           0       -7.919539    0.000045   -0.000190
      8          1           0       -4.198073    2.145454    0.081149
      9          1           0       -6.668779   -2.147537   -0.063412
     10          1           0       -4.198148   -2.145504   -0.081256
     11          6           0       -2.536892   -0.000014    0.000063
     12          6           0       -1.813363   -0.924286    0.760077
     13          6           0       -1.813258    0.924290   -0.759786
     14          6           0       -0.426027   -0.922473    0.771159
     15          6           0       -0.425899    0.922498   -0.770636
     16          6           0        0.288344    0.000018    0.000311
     17          1           0       -2.347573   -1.638662    1.386050
     18          1           0       -2.347350    1.638674   -1.385851
     19          1           0        0.115370   -1.638494    1.387158
     20          1           0        0.115571    1.638578   -1.386504
     21          1           0       -6.668762    2.147543    0.063006
     22          7           0        1.704382   -0.000003    0.000499
     23          6           0        2.414266    1.227770   -0.004035
     24          6           0        3.559402    1.382015   -0.792108
     25          6           0        1.979956    2.301413    0.780170
     26          6           0        4.257371    2.583383   -0.786193
     27          6           0        2.673527    3.505213    0.765830
     28          6           0        3.817854    3.653503   -0.012423
     29          1           0        3.900046    0.551242   -1.407814
     30          1           0        1.092486    2.185578    1.400082
     31          1           0        5.147916    2.686607   -1.405370
     32          1           0        2.321511    4.331764    1.382280
     33          1           0        4.363183    4.595952   -0.015664
     34          6           0        2.414241   -1.227791    0.004406
     35          6           0        3.559682   -1.382189    0.792032
     36          6           0        1.979686   -2.301249   -0.779869
     37          6           0        4.257673   -2.583532    0.785597
     38          6           0        2.673287   -3.505060   -0.766028
     39          6           0        3.817885   -3.653507    0.011769
     40          1           0        3.900521   -0.551523    1.407763
     41          1           0        1.092008   -2.185299   -1.399468
     42          1           0        5.148466   -2.686887    1.404399
     43          1           0        2.321010   -4.331477   -1.382521
     44          1           0        4.363223   -4.595951    0.014691
 ---------------------------------------------------------------------

 SCF Done:  E(RLC-wHPBE) =  -980.153290221     A.U. after   14 cycles

 The electronic state is 1-A.
 Alpha  occ. eigenvalues --  -14.14466 -10.05576 -10.05574 -10.05557 -10.02426
 Alpha  occ. eigenvalues --  -10.02131 -10.01518 -10.01518 -10.01514 -10.01514
 Alpha  occ. eigenvalues --  -10.01511 -10.01508 -10.01339 -10.01336 -10.01267
 Alpha  occ. eigenvalues --  -10.01266 -10.01242 -10.01242 -10.01233 -10.01233
 Alpha  occ. eigenvalues --  -10.01225 -10.01225 -10.01208 -10.01046 -10.01045
 Alpha  occ. eigenvalues --   -1.02014  -0.92595  -0.91572  -0.90966  -0.89526
 Alpha  occ. eigenvalues --   -0.83829  -0.82095  -0.80961  -0.80867  -0.80511
 Alpha  occ. eigenvalues --   -0.80188  -0.79471  -0.76364  -0.70068  -0.69665
 Alpha  occ. eigenvalues --   -0.67964  -0.67177  -0.66845  -0.65693  -0.65207
 Alpha  occ. eigenvalues --   -0.63567  -0.60863  -0.60701  -0.59226  -0.56485
 Alpha  occ. eigenvalues --   -0.55063  -0.54228  -0.54101  -0.52653  -0.52070
 Alpha  occ. eigenvalues --   -0.51159  -0.50909  -0.50693  -0.49991  -0.49725
 Alpha  occ. eigenvalues --   -0.49241  -0.49022  -0.48872  -0.48486  -0.45842
 Alpha  occ. eigenvalues --   -0.45498  -0.45386  -0.45015  -0.44635  -0.43079
 Alpha  occ. eigenvalues --   -0.42482  -0.42088  -0.41276  -0.41028  -0.40491
 Alpha  occ. eigenvalues --   -0.40290  -0.38541  -0.35265  -0.33971  -0.33950
 Alpha  occ. eigenvalues --   -0.33031  -0.32876  -0.32741  -0.31131  -0.25387
 Alpha virt. eigenvalues --    0.01852   0.03085   0.03475   0.04767   0.05511
 Alpha virt. eigenvalues --    0.05571   0.06086   0.09129   0.11124   0.11869
 Alpha virt. eigenvalues --    0.12040   0.12811   0.13729   0.14310   0.14792

 Mulliken charges:
               1
     1  C   -0.090565
     2  C   -0.127638
     3  C   -0.140177
     4  C   -0.090562
     5  C    0.003084
     6  C   -0.140160
     7  H    0.109170
     8  H    0.132539
     9  H    0.106589
    10  H    0.132533
    11  C    0.032866
    12  C   -0.156970
    13  C   -0.156977
    14  C   -0.126570
    15  C   -0.126443
    16  C   -0.036107
    17  H    0.130044
    18  H    0.130043
    19  H    0.150850
    20  H    0.150859
    21  H    0.106589
    22  N   -0.019679
    23  C   -0.054551
    24  C   -0.115914
    25  C   -0.111861
    26  C   -0.115087
    27  C   -0.114867
    28  C   -0.106801
    29  H    0.153846
    30  H    0.152597
    31  H    0.109096
    32  H    0.109004
    33  H    0.107882
    34  C   -0.054523
    35  C   -0.116042
    36  C   -0.111760
    37  C   -0.115082
    38  C   -0.114892
    39  C   -0.106799
    40  H    0.153844
    41  H    0.152616
    42  H    0.109095
    43  H    0.109001
    44  H    0.107881
 Sum of Mulliken charges =  -0.00000

 Dipole moment (field-independent basis, Debye):
    X=              0.2283    Y=              0.0002    Z=             -0.0003  Tot=              0.2283
 Quadrupole moment (field-independent basis, Debye-Ang):
   XX=           -134.1349   YY=           -132.9364   ZZ=           -148.3524
   XY=              0.0006   XZ=             -0.0009   YZ=              0.4510

 1\1\GINC-CASCADEB025\SP\RLC-wHPBE\TZVP\C24H19N1\RDU230\17-Jan-2021\0\\
 #P LC-wHPBE/TZVP iop(3/107=0221900000, 3/108=0221900000) scf=(conver=6
 ,fermi,ndamp=35,noincfock,novaracc,vshift=500,xqc)\\H19 C24 N1\\0,1\C,
 0,6.129184,1.201496,-0.030856\C,0,6.830271,0.000001,0.000182\C,0,4.738
 958,1.200713,-0.032197\C,0,6.129235,-1.201473,0.031153\C,0,4.021751,-0
 .000032,0.000031\C,0,4.738962,-1.200719,0.032361\H,0,7.919539,0.000045
 ,0.00019\H,0,4.198073,2.145454,-0.081149\H,0,6.668779,-2.147537,0.0634
 12\H,0,4.198148,-2.145504,0.081256\C,0,2.536892,-0.000014,-0.000063\C,

 Normal termination of Gaussian 16 at Sun Jan 17 11:50:11 2021.
