 Gaussian 16, Revision A.03,
 Gaussian 16:  EM64L-G16RevA.03 25-Dec-2016

 ----------------------------------------------------------------------
 #P LC-wHPBE/TZVP iop(3/107=0328100000, 3/108=0328100000) scf=(conver=6
 ,fermi,ndamp=35,noincfock,novaracc,vshift=500,xqc)
 ----------------------------------------------------------------------

 ----------
 H19 C24 N1
 ----------
 Symbolic Z-matrix:
 Charge =  0 Multiplicity = 1

                         Standard orientation:
 ---------------------------------------------------------------------
 Center     Atomic      Atomic             Coordinates (Angstroms)
 Number     Number       Type             X           Y           Z
 ---------------------------------------------------------------------
      1          6           0       -6.129184    1.201496    0.030856
      2          6           0       -6.830271    0.000001   -0.000182
      3          6           0       -4.738958    1.200713    0.032197
      4          6           0       -6.129235   -1.201473   -0.031153
      5          6           0       -4.021751   -0.000032   -0.000031
      6          6           0       -4.738962   -1.200719   -0.032361
      7          1           0       -7.919539    0.000045   -0.000190
      8          1           0       -4.198073    2.145454    0.081149
      9          1           0       -6.668779   -2.147537   -0.063412
     10          1           0       -4.198148   -2.145504   -0.081256
     11          6           0       -2.536892   -0.000014    0.000063
     12          6           0       -1.813363   -0.924286    0.760077
     13          6           0       -1.813258    0.924290   -0.759786
     14          6           0       -0.426027   -0.922473    0.771159
     15          6           0       -0.425899    0.922498   -0.770636
     16          6           0        0.288344    0.000018    0.000311
     17          1           0       -2.347573   -1.638662    1.386050
     18          1           0       -2.347350    1.638674   -1.385851
     19          1           0        0.115370   -1.638494    1.387158
     20          1           0        0.115571    1.638578   -1.386504
     21          1           0       -6.668762    2.147543    0.063006
     22          7           0        1.704382   -0.000003    0.000499
     23          6           0        2.414266    1.227770   -0.004035
     24          6           0        3.559402    1.382015   -0.792108
     25          6           0        1.979956    2.301413    0.780170
     26          6           0        4.257371    2.583383   -0.786193
     27          6           0        2.673527    3.505213    0.765830
     28          6           0        3.817854    3.653503   -0.012423
     29          1           0        3.900046    0.551242   -1.407814
     30          1           0        1.092486    2.185578    1.400082
     31          1           0        5.147916    2.686607   -1.405370
     32          1           0        2.321511    4.331764    1.382280
     33          1           0        4.363183    4.595952   -0.015664
     34          6           0        2.414241   -1.227791    0.004406
     35          6           0        3.559682   -1.382189    0.792032
     36          6           0        1.979686   -2.301249   -0.779869
     37          6           0        4.257673   -2.583532    0.785597
     38          6           0        2.673287   -3.505060   -0.766028
     39          6           0        3.817885   -3.653507    0.011769
     40          1           0        3.900521   -0.551523    1.407763
     41          1           0        1.092008   -2.185299   -1.399468
     42          1           0        5.148466   -2.686887    1.404399
     43          1           0        2.321010   -4.331477   -1.382521
     44          1           0        4.363223   -4.595951    0.014691
 ---------------------------------------------------------------------

 SCF Done:  E(RLC-wHPBE) =  -980.261214988     A.U. after   14 cycles

 The electronic state is 1-A.
 Alpha  occ. eigenvalues --  -14.20006 -10.11645 -10.11643 -10.11633 -10.08444
 Alpha  occ. eigenvalues --  -10.08130 -10.07518 -10.07514 -10.07511 -10.07511
 Alpha  occ. eigenvalues --  -10.07507 -10.07506 -10.07330 -10.07327 -10.07229
 Alpha  occ. eigenvalues --  -10.07229 -10.07224 -10.07222 -10.07189 -10.07180
 Alpha  occ. eigenvalues --  -10.07179 -10.07171 -10.07171 -10.07005 -10.07004
 Alpha  occ. eigenvalues --   -1.08069  -0.98809  -0.97701  -0.97080  -0.95527
 Alpha  occ. eigenvalues --   -0.89573  -0.87728  -0.86593  -0.86516  -0.86114
 Alpha  occ. eigenvalues --   -0.85788  -0.84956  -0.81658  -0.74949  -0.74544
 Alpha  occ. eigenvalues --   -0.72826  -0.71992  -0.71640  -0.70435  -0.69876
 Alpha  occ. eigenvalues --   -0.68141  -0.65228  -0.65019  -0.63522  -0.60628
 Alpha  occ. eigenvalues --   -0.59108  -0.58282  -0.58186  -0.56621  -0.55987
 Alpha  occ. eigenvalues --   -0.55057  -0.54794  -0.54569  -0.53781  -0.53471
 Alpha  occ. eigenvalues --   -0.53047  -0.52805  -0.52635  -0.52246  -0.49622
 Alpha  occ. eigenvalues --   -0.49268  -0.49115  -0.48508  -0.48320  -0.46457
 Alpha  occ. eigenvalues --   -0.45835  -0.45465  -0.44578  -0.44312  -0.43734
 Alpha  occ. eigenvalues --   -0.43529  -0.41643  -0.37675  -0.36231  -0.36219
 Alpha  occ. eigenvalues --   -0.35259  -0.35100  -0.34956  -0.33176  -0.27242
 Alpha virt. eigenvalues --    0.03208   0.04524   0.04964   0.06312   0.07147
 Alpha virt. eigenvalues --    0.07218   0.07693   0.10883   0.12651   0.13389
 Alpha virt. eigenvalues --    0.13574   0.14325   0.15173   0.15742   0.16214

 Mulliken charges:
               1
     1  C   -0.103945
     2  C   -0.146234
     3  C   -0.159414
     4  C   -0.103943
     5  C    0.001896
     6  C   -0.159395
     7  H    0.125468
     8  H    0.150555
     9  H    0.123192
    10  H    0.150549
    11  C    0.019070
    12  C   -0.167372
    13  C   -0.167376
    14  C   -0.135229
    15  C   -0.135111
    16  C   -0.050320
    17  H    0.148786
    18  H    0.148785
    19  H    0.171046
    20  H    0.171053
    21  H    0.123192
    22  N   -0.055686
    23  C   -0.057339
    24  C   -0.131992
    25  C   -0.128087
    26  C   -0.125295
    27  C   -0.124866
    28  C   -0.128200
    29  H    0.173288
    30  H    0.172281
    31  H    0.125508
    32  H    0.125416
    33  H    0.124506
    34  C   -0.057310
    35  C   -0.132114
    36  C   -0.127993
    37  C   -0.125291
    38  C   -0.124888
    39  C   -0.128198
    40  H    0.173287
    41  H    0.172298
    42  H    0.125507
    43  H    0.125413
    44  H    0.124505
 Sum of Mulliken charges =  -0.00000

 Dipole moment (field-independent basis, Debye):
    X=              0.2095    Y=              0.0002    Z=             -0.0003  Tot=              0.2095
 Quadrupole moment (field-independent basis, Debye-Ang):
   XX=           -133.1036   YY=           -131.9415   ZZ=           -148.0118
   XY=              0.0006   XZ=             -0.0010   YZ=              0.4496

 1\1\GINC-CASCADEB025\SP\RLC-wHPBE\TZVP\C24H19N1\RDU230\17-Jan-2021\0\\
 #P LC-wHPBE/TZVP iop(3/107=0328100000, 3/108=0328100000) scf=(conver=6
 ,fermi,ndamp=35,noincfock,novaracc,vshift=500,xqc)\\H19 C24 N1\\0,1\C,
 0,6.129184,1.201496,-0.030856\C,0,6.830271,0.000001,0.000182\C,0,4.738
 958,1.200713,-0.032197\C,0,6.129235,-1.201473,0.031153\C,0,4.021751,-0
 .000032,0.000031\C,0,4.738962,-1.200719,0.032361\H,0,7.919539,0.000045
 ,0.00019\H,0,4.198073,2.145454,-0.081149\H,0,6.668779,-2.147537,0.0634
 12\H,0,4.198148,-2.145504,0.081256\C,0,2.536892,-0.000014,-0.000063\C,

 Normal termination of Gaussian 16 at Sun Jan 17 12:15:42 2021.
