 Gaussian 16, Revision A.03,
 Gaussian 16:  EM64L-G16RevA.03 25-Dec-2016

 ----------------------------------------------------------------------
 #P LC-wHPBE/TZVP iop(3/107=0156200000, 3/108=0156200000) scf=(conver=6
 ,fermi,ndamp=35,noincfock,novaracc,vshift=500,xqc)
 ----------------------------------------------------------------------

 ----------
 H19 C24 N1
 ----------
 Symbolic Z-matrix:
 Charge =  0 Multiplicity = 1

                         Standard orientation:
 ---------------------------------------------------------------------
 Center     Atomic      Atomic             Coordinates (Angstroms)
 Number     Number       Type             X           Y           Z
 ---------------------------------------------------------------------
      1          6           0       -6.129184    1.201496    0.030856
      2          6           0       -6.830271    0.000001   -0.000182
      3          6           0       -4.738958    1.200713    0.032197
      4          6           0       -6.129235   -1.201473   -0.031153
      5          6           0       -4.021751   -0.000032   -0.000031
      6          6           0       -4.738962   -1.200719   -0.032361
      7          1           0       -7.919539    0.000045   -0.000190
      8          1           0       -4.198073    2.145454    0.081149
      9          1           0       -6.668779   -2.147537   -0.063412
     10          1           0       -4.198148   -2.145504   -0.081256
     11          6           0       -2.536892   -0.000014    0.000063
     12          6           0       -1.813363   -0.924286    0.760077
     13          6           0       -1.813258    0.924290   -0.759786
     14          6           0       -0.426027   -0.922473    0.771159
     15          6           0       -0.425899    0.922498   -0.770636
     16          6           0        0.288344    0.000018    0.000311
     17          1           0       -2.347573   -1.638662    1.386050
     18          1           0       -2.347350    1.638674   -1.385851
     19          1           0        0.115370   -1.638494    1.387158
     20          1           0        0.115571    1.638578   -1.386504
     21          1           0       -6.668762    2.147543    0.063006
     22          7           0        1.704382   -0.000003    0.000499
     23          6           0        2.414266    1.227770   -0.004035
     24          6           0        3.559402    1.382015   -0.792108
     25          6           0        1.979956    2.301413    0.780170
     26          6           0        4.257371    2.583383   -0.786193
     27          6           0        2.673527    3.505213    0.765830
     28          6           0        3.817854    3.653503   -0.012423
     29          1           0        3.900046    0.551242   -1.407814
     30          1           0        1.092486    2.185578    1.400082
     31          1           0        5.147916    2.686607   -1.405370
     32          1           0        2.321511    4.331764    1.382280
     33          1           0        4.363183    4.595952   -0.015664
     34          6           0        2.414241   -1.227791    0.004406
     35          6           0        3.559682   -1.382189    0.792032
     36          6           0        1.979686   -2.301249   -0.779869
     37          6           0        4.257673   -2.583532    0.785597
     38          6           0        2.673287   -3.505060   -0.766028
     39          6           0        3.817885   -3.653507    0.011769
     40          1           0        3.900521   -0.551523    1.407763
     41          1           0        1.092008   -2.185299   -1.399468
     42          1           0        5.148466   -2.686887    1.404399
     43          1           0        2.321010   -4.331477   -1.382521
     44          1           0        4.363223   -4.595951    0.014691
 ---------------------------------------------------------------------

 SCF Done:  E(RLC-wHPBE) =  -980.065445439     A.U. after   14 cycles

 The electronic state is 1-A.
 Alpha  occ. eigenvalues --  -14.11064 -10.01839 -10.01837 -10.01815  -9.98702
 Alpha  occ. eigenvalues --   -9.98420  -9.97818  -9.97818  -9.97814  -9.97814
 Alpha  occ. eigenvalues --   -9.97801  -9.97799  -9.97630  -9.97627  -9.97592
 Alpha  occ. eigenvalues --   -9.97591  -9.97563  -9.97563  -9.97556  -9.97555
 Alpha  occ. eigenvalues --   -9.97534  -9.97534  -9.97500  -9.97356  -9.97356
 Alpha  occ. eigenvalues --   -0.98218  -0.88652  -0.87667  -0.87058  -0.85659
 Alpha  occ. eigenvalues --   -0.80039  -0.78357  -0.77219  -0.77114  -0.76785
 Alpha  occ. eigenvalues --   -0.76453  -0.75788  -0.72761  -0.66629  -0.66227
 Alpha  occ. eigenvalues --   -0.64527  -0.63769  -0.63453  -0.62320  -0.61865
 Alpha  occ. eigenvalues --   -0.60252  -0.57614  -0.57482  -0.56001  -0.53366
 Alpha  occ. eigenvalues --   -0.52018  -0.51162  -0.51038  -0.49652  -0.49097
 Alpha  occ. eigenvalues --   -0.48193  -0.47949  -0.47740  -0.47088  -0.46859
 Alpha  occ. eigenvalues --   -0.46331  -0.46134  -0.46004  -0.45603  -0.42776
 Alpha  occ. eigenvalues --   -0.42523  -0.42419  -0.42219  -0.41604  -0.40439
 Alpha  occ. eigenvalues --   -0.39857  -0.39418  -0.38677  -0.38446  -0.37939
 Alpha  occ. eigenvalues --   -0.37719  -0.35970  -0.33029  -0.31843  -0.31807
 Alpha  occ. eigenvalues --   -0.30912  -0.30776  -0.30649  -0.29190  -0.23704
 Alpha virt. eigenvalues --    0.00345   0.01439   0.01850   0.03051   0.03729
 Alpha virt. eigenvalues --    0.03777   0.04355   0.07247   0.09458   0.10213
 Alpha virt. eigenvalues --    0.10366   0.11145   0.12101   0.12684   0.13154

 Mulliken charges:
               1
     1  C   -0.086222
     2  C   -0.119443
     3  C   -0.130971
     4  C   -0.086219
     5  C   -0.001211
     6  C   -0.130955
     7  H    0.103139
     8  H    0.125260
     9  H    0.100445
    10  H    0.125254
    11  C    0.038906
    12  C   -0.149804
    13  C   -0.149811
    14  C   -0.125393
    15  C   -0.125259
    16  C   -0.031087
    17  H    0.122452
    18  H    0.122451
    19  H    0.142358
    20  H    0.142366
    21  H    0.100446
    22  N    0.001197
    23  C   -0.057987
    24  C   -0.110565
    25  C   -0.106830
    26  C   -0.109055
    27  C   -0.108984
    28  C   -0.098380
    29  H    0.145723
    30  H    0.144348
    31  H    0.103093
    32  H    0.103007
    33  H    0.101683
    34  C   -0.057959
    35  C   -0.110698
    36  C   -0.106721
    37  C   -0.109052
    38  C   -0.109010
    39  C   -0.098377
    40  H    0.145722
    41  H    0.144366
    42  H    0.103092
    43  H    0.103004
    44  H    0.101682
 Sum of Mulliken charges =  -0.00000

 Dipole moment (field-independent basis, Debye):
    X=              0.2541    Y=              0.0002    Z=             -0.0003  Tot=              0.2541
 Quadrupole moment (field-independent basis, Debye-Ang):
   XX=           -134.7590   YY=           -133.4975   ZZ=           -148.6178
   XY=              0.0006   XZ=             -0.0009   YZ=              0.4568

 1\1\GINC-CASCADEB025\SP\RLC-wHPBE\TZVP\C24H19N1\RDU230\17-Jan-2021\0\\
 #P LC-wHPBE/TZVP iop(3/107=0156200000, 3/108=0156200000) scf=(conver=6
 ,fermi,ndamp=35,noincfock,novaracc,vshift=500,xqc)\\H19 C24 N1\\0,1\C,
 0,6.129184,1.201496,-0.030856\C,0,6.830271,0.000001,0.000182\C,0,4.738
 958,1.200713,-0.032197\C,0,6.129235,-1.201473,0.031153\C,0,4.021751,-0
 .000032,0.000031\C,0,4.738962,-1.200719,0.032361\H,0,7.919539,0.000045
 ,0.00019\H,0,4.198073,2.145454,-0.081149\H,0,6.668779,-2.147537,0.0634
 12\H,0,4.198148,-2.145504,0.081256\C,0,2.536892,-0.000014,-0.000063\C,

 Normal termination of Gaussian 16 at Sun Jan 17 12:41:11 2021.
