 Gaussian 16, Revision A.03,
 Gaussian 16:  EM64L-G16RevA.03 25-Dec-2016

 ----------------------------------------------------------------------
 #P LC-wHPBE/TZVP iop(3/107=0171100000, 3/108=0171100000) scf=(conver=6
 ,fermi,ndamp=35,noincfock,novaracc,vshift=500,xqc)
 ----------------------------------------------------------------------

 ----------
 H19 C24 N1
 ----------
 Symbolic Z-matrix:
 Charge =  0 Multiplicity = 1

                         Standard orientation:
 ---------------------------------------------------------------------
 Center     Atomic      Atomic             Coordinates (Angstroms)
 Number     Number       Type             X           Y           Z
 ---------------------------------------------------------------------
      1          6           0       -6.129184    1.201496    0.030856
      2          6           0       -6.830271    0.000001   -0.000182
      3          6           0       -4.738958    1.200713    0.032197
      4          6           0       -6.129235   -1.201473   -0.031153
      5          6           0       -4.021751   -0.000032   -0.000031
      6          6           0       -4.738962   -1.200719   -0.032361
      7          1           0       -7.919539    0.000045   -0.000190
      8          1           0       -4.198073    2.145454    0.081149
      9          1           0       -6.668779   -2.147537   -0.063412
     10          1           0       -4.198148   -2.145504   -0.081256
     11          6           0       -2.536892   -0.000014    0.000063
     12          6           0       -1.813363   -0.924286    0.760077
     13          6           0       -1.813258    0.924290   -0.759786
     14          6           0       -0.426027   -0.922473    0.771159
     15          6           0       -0.425899    0.922498   -0.770636
     16          6           0        0.288344    0.000018    0.000311
     17          1           0       -2.347573   -1.638662    1.386050
     18          1           0       -2.347350    1.638674   -1.385851
     19          1           0        0.115370   -1.638494    1.387158
     20          1           0        0.115571    1.638578   -1.386504
     21          1           0       -6.668762    2.147543    0.063006
     22          7           0        1.704382   -0.000003    0.000499
     23          6           0        2.414266    1.227770   -0.004035
     24          6           0        3.559402    1.382015   -0.792108
     25          6           0        1.979956    2.301413    0.780170
     26          6           0        4.257371    2.583383   -0.786193
     27          6           0        2.673527    3.505213    0.765830
     28          6           0        3.817854    3.653503   -0.012423
     29          1           0        3.900046    0.551242   -1.407814
     30          1           0        1.092486    2.185578    1.400082
     31          1           0        5.147916    2.686607   -1.405370
     32          1           0        2.321511    4.331764    1.382280
     33          1           0        4.363183    4.595952   -0.015664
     34          6           0        2.414241   -1.227791    0.004406
     35          6           0        3.559682   -1.382189    0.792032
     36          6           0        1.979686   -2.301249   -0.779869
     37          6           0        4.257673   -2.583532    0.785597
     38          6           0        2.673287   -3.505060   -0.766028
     39          6           0        3.817885   -3.653507    0.011769
     40          1           0        3.900521   -0.551523    1.407763
     41          1           0        1.092008   -2.185299   -1.399468
     42          1           0        5.148466   -2.686887    1.404399
     43          1           0        2.321010   -4.331477   -1.382521
     44          1           0        4.363223   -4.595951    0.014691
 ---------------------------------------------------------------------

 SCF Done:  E(RLC-wHPBE) =  -980.085953483     A.U. after   14 cycles

 The electronic state is 1-A.
 Alpha  occ. eigenvalues --  -14.11835 -10.02685 -10.02683 -10.02663  -9.99548
 Alpha  occ. eigenvalues --   -9.99262  -9.98657  -9.98657  -9.98653  -9.98653
 Alpha  occ. eigenvalues --   -9.98642  -9.98640  -9.98472  -9.98469  -9.98425
 Alpha  occ. eigenvalues --   -9.98424  -9.98395  -9.98395  -9.98387  -9.98387
 Alpha  occ. eigenvalues --   -9.98376  -9.98376  -9.98342  -9.98193  -9.98193
 Alpha  occ. eigenvalues --   -0.99075  -0.89544  -0.88550  -0.87944  -0.86537
 Alpha  occ. eigenvalues --   -0.80905  -0.79212  -0.78076  -0.77973  -0.77639
 Alpha  occ. eigenvalues --   -0.77310  -0.76635  -0.73593  -0.67430  -0.67028
 Alpha  occ. eigenvalues --   -0.65329  -0.64565  -0.64245  -0.63110  -0.62649
 Alpha  occ. eigenvalues --   -0.61032  -0.58383  -0.58245  -0.56767  -0.54109
 Alpha  occ. eigenvalues --   -0.52744  -0.51895  -0.51767  -0.50368  -0.49808
 Alpha  occ. eigenvalues --   -0.48902  -0.48658  -0.48448  -0.47783  -0.47546
 Alpha  occ. eigenvalues --   -0.47027  -0.46826  -0.46691  -0.46295  -0.43515
 Alpha  occ. eigenvalues --   -0.43237  -0.43117  -0.42914  -0.42338  -0.41079
 Alpha  occ. eigenvalues --   -0.40493  -0.40067  -0.39309  -0.39074  -0.38560
 Alpha  occ. eigenvalues --   -0.38345  -0.36602  -0.33597  -0.32386  -0.32355
 Alpha  occ. eigenvalues --   -0.31454  -0.31312  -0.31183  -0.29688  -0.24133
 Alpha virt. eigenvalues --    0.00747   0.01879   0.02281   0.03507   0.04200
 Alpha virt. eigenvalues --    0.04253   0.04813   0.07744   0.09899   0.10651
 Alpha virt. eigenvalues --    0.10809   0.11587   0.12536   0.13119   0.13591

 Mulliken charges:
               1
     1  C   -0.086843
     2  C   -0.120836
     3  C   -0.132654
     4  C   -0.086840
     5  C    0.000084
     6  C   -0.132638
     7  H    0.104066
     8  H    0.126488
     9  H    0.101389
    10  H    0.126482
    11  C    0.037860
    12  C   -0.151358
    13  C   -0.151365
    14  C   -0.125392
    15  C   -0.125259
    16  C   -0.031733
    17  H    0.123722
    18  H    0.123720
    19  H    0.143832
    20  H    0.143840
    21  H    0.101389
    22  N   -0.003120
    23  C   -0.056852
    24  C   -0.111324
    25  C   -0.107492
    26  C   -0.110296
    27  C   -0.110192
    28  C   -0.099718
    29  H    0.147132
    30  H    0.145779
    31  H    0.104000
    32  H    0.103913
    33  H    0.102636
    34  C   -0.056824
    35  C   -0.111456
    36  C   -0.107386
    37  C   -0.110292
    38  C   -0.110218
    39  C   -0.099715
    40  H    0.147131
    41  H    0.145797
    42  H    0.103999
    43  H    0.103910
    44  H    0.102634
 Sum of Mulliken charges =  -0.00000

 Dipole moment (field-independent basis, Debye):
    X=              0.2468    Y=              0.0002    Z=             -0.0003  Tot=              0.2468
 Quadrupole moment (field-independent basis, Debye-Ang):
   XX=           -134.6206   YY=           -133.3784   ZZ=           -148.5562
   XY=              0.0006   XZ=             -0.0009   YZ=              0.4552

 1\1\GINC-CASCADEB025\SP\RLC-wHPBE\TZVP\C24H19N1\RDU230\17-Jan-2021\0\\
 #P LC-wHPBE/TZVP iop(3/107=0171100000, 3/108=0171100000) scf=(conver=6
 ,fermi,ndamp=35,noincfock,novaracc,vshift=500,xqc)\\H19 C24 N1\\0,1\C,
 0,6.129184,1.201496,-0.030856\C,0,6.830271,0.000001,0.000182\C,0,4.738
 958,1.200713,-0.032197\C,0,6.129235,-1.201473,0.031153\C,0,4.021751,-0
 .000032,0.000031\C,0,4.738962,-1.200719,0.032361\H,0,7.919539,0.000045
 ,0.00019\H,0,4.198073,2.145454,-0.081149\H,0,6.668779,-2.147537,0.0634
 12\H,0,4.198148,-2.145504,0.081256\C,0,2.536892,-0.000014,-0.000063\C,

 Normal termination of Gaussian 16 at Sun Jan 17 13:10:08 2021.
