 Gaussian 16, Revision A.03,
 Gaussian 16:  EM64L-G16RevA.03 25-Dec-2016

 ----------------------------------------------------------------------
 #P LC-wHPBE/TZVP iop(3/107=0182400000, 3/108=0182400000) scf=(conver=6
 ,fermi,ndamp=35,noincfock,novaracc,vshift=500,xqc)
 ----------------------------------------------------------------------

 ----------
 H19 C24 N1
 ----------
 Symbolic Z-matrix:
 Charge =  1 Multiplicity = 2

                         Standard orientation:
 ---------------------------------------------------------------------
 Center     Atomic      Atomic             Coordinates (Angstroms)
 Number     Number       Type             X           Y           Z
 ---------------------------------------------------------------------
      1          6           0       -6.129184    1.201496    0.030856
      2          6           0       -6.830271    0.000001   -0.000182
      3          6           0       -4.738958    1.200713    0.032197
      4          6           0       -6.129235   -1.201473   -0.031153
      5          6           0       -4.021751   -0.000032   -0.000031
      6          6           0       -4.738962   -1.200719   -0.032361
      7          1           0       -7.919539    0.000045   -0.000190
      8          1           0       -4.198073    2.145454    0.081149
      9          1           0       -6.668779   -2.147537   -0.063412
     10          1           0       -4.198148   -2.145504   -0.081256
     11          6           0       -2.536892   -0.000014    0.000063
     12          6           0       -1.813363   -0.924286    0.760077
     13          6           0       -1.813258    0.924290   -0.759786
     14          6           0       -0.426027   -0.922473    0.771159
     15          6           0       -0.425899    0.922498   -0.770636
     16          6           0        0.288344    0.000018    0.000311
     17          1           0       -2.347573   -1.638662    1.386050
     18          1           0       -2.347350    1.638674   -1.385851
     19          1           0        0.115370   -1.638494    1.387158
     20          1           0        0.115571    1.638578   -1.386504
     21          1           0       -6.668762    2.147543    0.063006
     22          7           0        1.704382   -0.000003    0.000499
     23          6           0        2.414266    1.227770   -0.004035
     24          6           0        3.559402    1.382015   -0.792108
     25          6           0        1.979956    2.301413    0.780170
     26          6           0        4.257371    2.583383   -0.786193
     27          6           0        2.673527    3.505213    0.765830
     28          6           0        3.817854    3.653503   -0.012423
     29          1           0        3.900046    0.551242   -1.407814
     30          1           0        1.092486    2.185578    1.400082
     31          1           0        5.147916    2.686607   -1.405370
     32          1           0        2.321511    4.331764    1.382280
     33          1           0        4.363183    4.595952   -0.015664
     34          6           0        2.414241   -1.227791    0.004406
     35          6           0        3.559682   -1.382189    0.792032
     36          6           0        1.979686   -2.301249   -0.779869
     37          6           0        4.257673   -2.583532    0.785597
     38          6           0        2.673287   -3.505060   -0.766028
     39          6           0        3.817885   -3.653507    0.011769
     40          1           0        3.900521   -0.551523    1.407763
     41          1           0        1.092008   -2.185299   -1.399468
     42          1           0        5.148466   -2.686887    1.404399
     43          1           0        2.321010   -4.331477   -1.382521
     44          1           0        4.363223   -4.595951    0.014691
 ---------------------------------------------------------------------

 SCF Done:  E(ULC-wHPBE) =  -979.857020099     A.U. after   20 cycles

 The electronic state is 2-A.
 Alpha  occ. eigenvalues --  -14.32570 -10.18102 -10.17863 -10.17861 -10.13895
 Alpha  occ. eigenvalues --  -10.13526 -10.13524 -10.13315 -10.13315 -10.13268
 Alpha  occ. eigenvalues --  -10.13268 -10.12446 -10.12446 -10.12279 -10.12278
 Alpha  occ. eigenvalues --  -10.12191 -10.12191 -10.12181 -10.12181 -10.10532
 Alpha  occ. eigenvalues --  -10.09022 -10.09020 -10.08356 -10.08298 -10.08285
 Alpha  occ. eigenvalues --   -1.16973  -1.03663  -1.03191  -1.01479  -0.98847
 Alpha  occ. eigenvalues --   -0.94583  -0.93976  -0.91981  -0.91963  -0.91767
 Alpha  occ. eigenvalues --   -0.90069  -0.87764  -0.86901  -0.81749  -0.81518
 Alpha  occ. eigenvalues --   -0.79123  -0.78302  -0.78192  -0.75616  -0.74250
 Alpha  occ. eigenvalues --   -0.73668  -0.72717  -0.72573  -0.68644  -0.67440
 Alpha  occ. eigenvalues --   -0.66878  -0.66686  -0.64040  -0.63992  -0.63641
 Alpha  occ. eigenvalues --   -0.61914  -0.61774  -0.61207  -0.60863  -0.60545
 Alpha  occ. eigenvalues --   -0.60330  -0.59921  -0.58932  -0.58147  -0.57332
 Alpha  occ. eigenvalues --   -0.57298  -0.56321  -0.55235  -0.54709  -0.54422
 Alpha  occ. eigenvalues --   -0.54071  -0.53000  -0.52564  -0.52484  -0.51403
 Alpha  occ. eigenvalues --   -0.49342  -0.48692  -0.46889  -0.46535  -0.46219
 Alpha  occ. eigenvalues --   -0.45054  -0.44975  -0.41917  -0.41287  -0.39333
 Alpha virt. eigenvalues --   -0.11786  -0.11049  -0.10940  -0.08801  -0.08629
 Alpha virt. eigenvalues --   -0.07370  -0.05597  -0.04154  -0.01499   0.00068
 Alpha virt. eigenvalues --    0.00391   0.01717   0.01821   0.02552   0.02667

  Beta  occ. eigenvalues --  -14.31749 -10.18117 -10.17912 -10.17910 -10.13706
  Beta  occ. eigenvalues --  -10.13388 -10.13386 -10.13178 -10.13177 -10.13134
  Beta  occ. eigenvalues --  -10.13134 -10.12332 -10.12330 -10.12301 -10.12301
  Beta  occ. eigenvalues --  -10.12247 -10.12247 -10.12230 -10.12230 -10.10549
  Beta  occ. eigenvalues --  -10.08985 -10.08983 -10.08335 -10.08313 -10.08281
  Beta  occ. eigenvalues --   -1.15918  -1.03431  -1.02995  -1.01208  -0.98737
  Beta  occ. eigenvalues --   -0.94361  -0.93781  -0.91835  -0.91811  -0.91622
  Beta  occ. eigenvalues --   -0.89744  -0.87726  -0.86632  -0.81494  -0.81277
  Beta  occ. eigenvalues --   -0.78874  -0.78141  -0.78074  -0.75455  -0.74192
  Beta  occ. eigenvalues --   -0.73584  -0.72544  -0.72419  -0.68529  -0.67308
  Beta  occ. eigenvalues --   -0.66623  -0.65995  -0.63916  -0.63886  -0.63549
  Beta  occ. eigenvalues --   -0.61836  -0.61635  -0.61074  -0.60732  -0.60436
  Beta  occ. eigenvalues --   -0.60260  -0.59790  -0.58892  -0.57518  -0.56983
  Beta  occ. eigenvalues --   -0.56873  -0.56207  -0.55153  -0.54328  -0.54095
  Beta  occ. eigenvalues --   -0.53836  -0.52795  -0.52467  -0.52384  -0.50399
  Beta  occ. eigenvalues --   -0.49299  -0.48549  -0.45867  -0.45848  -0.45561
  Beta  occ. eigenvalues --   -0.44573  -0.44517  -0.41205  -0.40206
  Beta virt. eigenvalues --   -0.24408  -0.11110  -0.10668  -0.10411  -0.08302
  Beta virt. eigenvalues --   -0.08209  -0.06470  -0.05500  -0.03671  -0.01404
  Beta virt. eigenvalues --    0.00136   0.00469   0.01775   0.01880   0.02622

 Mulliken charges and spin densities:
               1          2
     1  C   -0.087282  -0.014233
     2  C   -0.106894   0.032951
     3  C   -0.125614   0.028463
     4  C   -0.087278  -0.014234
     5  C    0.027841  -0.020172
     6  C   -0.125599   0.028470
     7  H    0.135311  -0.001687
     8  H    0.140007  -0.001558
     9  H    0.129092   0.000660
    10  H    0.140003  -0.001558
    11  C    0.013952   0.143347
    12  C   -0.136563  -0.053450
    13  C   -0.136567  -0.053435
    14  C   -0.100858   0.096230
    15  C   -0.100722   0.096228
    16  C   -0.045526   0.007039
    17  H    0.165430   0.002483
    18  H    0.165427   0.002483
    19  H    0.178165  -0.004175
    20  H    0.178163  -0.004175
    21  H    0.129093   0.000660
    22  N    0.089929   0.366504
    23  C   -0.075535  -0.018753
    24  C   -0.089455   0.096358
    25  C   -0.087293   0.097015
    26  C   -0.105343  -0.055882
    27  C   -0.105295  -0.057401
    28  C   -0.064955   0.129179
    29  H    0.180579  -0.004023
    30  H    0.178659  -0.004103
    31  H    0.148927   0.002728
    32  H    0.148227   0.002860
    33  H    0.151725  -0.006404
    34  C   -0.075506  -0.018759
    35  C   -0.089584   0.096370
    36  C   -0.087184   0.097025
    37  C   -0.105342  -0.055895
    38  C   -0.105317  -0.057400
    39  C   -0.064950   0.129189
    40  H    0.180586  -0.004023
    41  H    0.178669  -0.004104
    42  H    0.148928   0.002728
    43  H    0.148225   0.002861
    44  H    0.151724  -0.006404
 Sum of Mulliken charges =   1.00000   1.00000

 Dipole moment (field-independent basis, Debye):
    X=              4.4363    Y=              0.0000    Z=             -0.0003  Tot=              4.4363
 Quadrupole moment (field-independent basis, Debye-Ang):
   XX=            -63.8646   YY=            -98.8851   ZZ=           -140.5019
   XY=              0.0002   XZ=             -0.0016   YZ=              0.4025

 Normal termination of Gaussian 16 at Sun Jan 17 15:43:06 2021.
