 Gaussian 16, Revision A.03,
 Gaussian 16:  EM64L-G16RevA.03 25-Dec-2016

 ----------------------------------------------------------------------
 #P LC-wHPBE/TZVP iop(3/107=0182000000, 3/108=0182000000) scf=(conver=6
 ,fermi,ndamp=35,noincfock,novaracc,vshift=500,xqc)
 ----------------------------------------------------------------------

 ----------
 H19 C24 N1
 ----------
 Symbolic Z-matrix:
 Charge =  0 Multiplicity = 1

                         Standard orientation:
 ---------------------------------------------------------------------
 Center     Atomic      Atomic             Coordinates (Angstroms)
 Number     Number       Type             X           Y           Z
 ---------------------------------------------------------------------
      1          6           0       -6.129184    1.201496    0.030856
      2          6           0       -6.830271    0.000001   -0.000182
      3          6           0       -4.738958    1.200713    0.032197
      4          6           0       -6.129235   -1.201473   -0.031153
      5          6           0       -4.021751   -0.000032   -0.000031
      6          6           0       -4.738962   -1.200719   -0.032361
      7          1           0       -7.919539    0.000045   -0.000190
      8          1           0       -4.198073    2.145454    0.081149
      9          1           0       -6.668779   -2.147537   -0.063412
     10          1           0       -4.198148   -2.145504   -0.081256
     11          6           0       -2.536892   -0.000014    0.000063
     12          6           0       -1.813363   -0.924286    0.760077
     13          6           0       -1.813258    0.924290   -0.759786
     14          6           0       -0.426027   -0.922473    0.771159
     15          6           0       -0.425899    0.922498   -0.770636
     16          6           0        0.288344    0.000018    0.000311
     17          1           0       -2.347573   -1.638662    1.386050
     18          1           0       -2.347350    1.638674   -1.385851
     19          1           0        0.115370   -1.638494    1.387158
     20          1           0        0.115571    1.638578   -1.386504
     21          1           0       -6.668762    2.147543    0.063006
     22          7           0        1.704382   -0.000003    0.000499
     23          6           0        2.414266    1.227770   -0.004035
     24          6           0        3.559402    1.382015   -0.792108
     25          6           0        1.979956    2.301413    0.780170
     26          6           0        4.257371    2.583383   -0.786193
     27          6           0        2.673527    3.505213    0.765830
     28          6           0        3.817854    3.653503   -0.012423
     29          1           0        3.900046    0.551242   -1.407814
     30          1           0        1.092486    2.185578    1.400082
     31          1           0        5.147916    2.686607   -1.405370
     32          1           0        2.321511    4.331764    1.382280
     33          1           0        4.363183    4.595952   -0.015664
     34          6           0        2.414241   -1.227791    0.004406
     35          6           0        3.559682   -1.382189    0.792032
     36          6           0        1.979686   -2.301249   -0.779869
     37          6           0        4.257673   -2.583532    0.785597
     38          6           0        2.673287   -3.505060   -0.766028
     39          6           0        3.817885   -3.653507    0.011769
     40          1           0        3.900521   -0.551523    1.407763
     41          1           0        1.092008   -2.185299   -1.399468
     42          1           0        5.148466   -2.686887    1.404399
     43          1           0        2.321010   -4.331477   -1.382521
     44          1           0        4.363223   -4.595951    0.014691
 ---------------------------------------------------------------------

 SCF Done:  E(RLC-wHPBE) =  -980.100860980     A.U. after   14 cycles

 The electronic state is 1-A.
 Alpha  occ. eigenvalues --  -14.12399 -10.03304 -10.03303 -10.03283 -10.00165
 Alpha  occ. eigenvalues --   -9.99878  -9.99271  -9.99271  -9.99267  -9.99267
 Alpha  occ. eigenvalues --   -9.99258  -9.99255  -9.99088  -9.99084  -9.99035
 Alpha  occ. eigenvalues --   -9.99034  -9.99004  -9.99003  -9.98996  -9.98996
 Alpha  occ. eigenvalues --   -9.98991  -9.98991  -9.98958  -9.98806  -9.98805
 Alpha  occ. eigenvalues --   -0.99704  -0.90198  -0.89198  -0.88592  -0.87180
 Alpha  occ. eigenvalues --   -0.81537  -0.79836  -0.78701  -0.78600  -0.78261
 Alpha  occ. eigenvalues --   -0.77934  -0.77250  -0.74197  -0.68010  -0.67607
 Alpha  occ. eigenvalues --   -0.65908  -0.65139  -0.64816  -0.63679  -0.63213
 Alpha  occ. eigenvalues --   -0.61593  -0.58934  -0.58791  -0.57315  -0.54639
 Alpha  occ. eigenvalues --   -0.53262  -0.52417  -0.52287  -0.50880  -0.50315
 Alpha  occ. eigenvalues --   -0.49408  -0.49163  -0.48952  -0.48278  -0.48035
 Alpha  occ. eigenvalues --   -0.47524  -0.47318  -0.47180  -0.46787  -0.44041
 Alpha  occ. eigenvalues --   -0.43745  -0.43622  -0.43397  -0.42859  -0.41531
 Alpha  occ. eigenvalues --   -0.40943  -0.40525  -0.39755  -0.39517  -0.38998
 Alpha  occ. eigenvalues --   -0.38787  -0.37046  -0.33989  -0.32760  -0.32731
 Alpha  occ. eigenvalues --   -0.31827  -0.31680  -0.31550  -0.30030  -0.24427
 Alpha virt. eigenvalues --    0.01017   0.02175   0.02571   0.03814   0.04519
 Alpha virt. eigenvalues --    0.04573   0.05122   0.08080   0.10197   0.10946
 Alpha virt. eigenvalues --    0.11108   0.11884   0.12827   0.13411   0.13885

 Mulliken charges:
               1
     1  C   -0.087434
     2  C   -0.122049
     3  C   -0.134058
     4  C   -0.087431
     5  C    0.000933
     6  C   -0.134042
     7  H    0.104918
     8  H    0.127552
     9  H    0.102256
    10  H    0.127546
    11  C    0.036967
    12  C   -0.152539
    13  C   -0.152546
    14  C   -0.125483
    15  C   -0.125351
    16  C   -0.032393
    17  H    0.124829
    18  H    0.124828
    19  H    0.145088
    20  H    0.145097
    21  H    0.102256
    22  N   -0.006478
    23  C   -0.056130
    24  C   -0.112057
    25  C   -0.108163
    26  C   -0.111262
    27  C   -0.111134
    28  C   -0.100926
    29  H    0.148333
    30  H    0.146999
    31  H    0.104843
    32  H    0.104754
    33  H    0.103512
    34  C   -0.056102
    35  C   -0.112188
    36  C   -0.108058
    37  C   -0.111258
    38  C   -0.111160
    39  C   -0.100923
    40  H    0.148332
    41  H    0.147018
    42  H    0.104842
    43  H    0.104751
    44  H    0.103511
 Sum of Mulliken charges =  -0.00000

 Dipole moment (field-independent basis, Debye):
    X=              0.2420    Y=              0.0002    Z=             -0.0003  Tot=              0.2420
 Quadrupole moment (field-independent basis, Debye-Ang):
   XX=           -134.5179   YY=           -133.2876   ZZ=           -148.5113
   XY=              0.0006   XZ=             -0.0009   YZ=              0.4541

 1\1\GINC-CASCADEB025\SP\RLC-wHPBE\TZVP\C24H19N1\RDU230\17-Jan-2021\0\\
 #P LC-wHPBE/TZVP iop(3/107=0182000000, 3/108=0182000000) scf=(conver=6
 ,fermi,ndamp=35,noincfock,novaracc,vshift=500,xqc)\\H19 C24 N1\\0,1\C,
 0,6.129184,1.201496,-0.030856\C,0,6.830271,0.000001,0.000182\C,0,4.738
 958,1.200713,-0.032197\C,0,6.129235,-1.201473,0.031153\C,0,4.021751,-0
 .000032,0.000031\C,0,4.738962,-1.200719,0.032361\H,0,7.919539,0.000045
 ,0.00019\H,0,4.198073,2.145454,-0.081149\H,0,6.668779,-2.147537,0.0634
 12\H,0,4.198148,-2.145504,0.081256\C,0,2.536892,-0.000014,-0.000063\C,

 Normal termination of Gaussian 16 at Sun Jan 17 14:31:06 2021.
