 Gaussian 16, Revision A.03,
 Gaussian 16:  EM64L-G16RevA.03 25-Dec-2016

 ----------------------------------------------------------------------
 #P LC-wHPBE/TZVP iop(3/107=0171100000, 3/108=0171100000) scf=(conver=6
 ,fermi,ndamp=35,noincfock,novaracc,vshift=500,xqc)
 ----------------------------------------------------------------------

 ----------
 H19 C24 N1
 ----------
 Symbolic Z-matrix:
 Charge =  1 Multiplicity = 2

                         Standard orientation:
 ---------------------------------------------------------------------
 Center     Atomic      Atomic             Coordinates (Angstroms)
 Number     Number       Type             X           Y           Z
 ---------------------------------------------------------------------
      1          6           0       -6.129184    1.201496    0.030856
      2          6           0       -6.830271    0.000001   -0.000182
      3          6           0       -4.738958    1.200713    0.032197
      4          6           0       -6.129235   -1.201473   -0.031153
      5          6           0       -4.021751   -0.000032   -0.000031
      6          6           0       -4.738962   -1.200719   -0.032361
      7          1           0       -7.919539    0.000045   -0.000190
      8          1           0       -4.198073    2.145454    0.081149
      9          1           0       -6.668779   -2.147537   -0.063412
     10          1           0       -4.198148   -2.145504   -0.081256
     11          6           0       -2.536892   -0.000014    0.000063
     12          6           0       -1.813363   -0.924286    0.760077
     13          6           0       -1.813258    0.924290   -0.759786
     14          6           0       -0.426027   -0.922473    0.771159
     15          6           0       -0.425899    0.922498   -0.770636
     16          6           0        0.288344    0.000018    0.000311
     17          1           0       -2.347573   -1.638662    1.386050
     18          1           0       -2.347350    1.638674   -1.385851
     19          1           0        0.115370   -1.638494    1.387158
     20          1           0        0.115571    1.638578   -1.386504
     21          1           0       -6.668762    2.147543    0.063006
     22          7           0        1.704382   -0.000003    0.000499
     23          6           0        2.414266    1.227770   -0.004035
     24          6           0        3.559402    1.382015   -0.792108
     25          6           0        1.979956    2.301413    0.780170
     26          6           0        4.257371    2.583383   -0.786193
     27          6           0        2.673527    3.505213    0.765830
     28          6           0        3.817854    3.653503   -0.012423
     29          1           0        3.900046    0.551242   -1.407814
     30          1           0        1.092486    2.185578    1.400082
     31          1           0        5.147916    2.686607   -1.405370
     32          1           0        2.321511    4.331764    1.382280
     33          1           0        4.363183    4.595952   -0.015664
     34          6           0        2.414241   -1.227791    0.004406
     35          6           0        3.559682   -1.382189    0.792032
     36          6           0        1.979686   -2.301249   -0.779869
     37          6           0        4.257673   -2.583532    0.785597
     38          6           0        2.673287   -3.505060   -0.766028
     39          6           0        3.817885   -3.653507    0.011769
     40          1           0        3.900521   -0.551523    1.407763
     41          1           0        1.092008   -2.185299   -1.399468
     42          1           0        5.148466   -2.686887    1.404399
     43          1           0        2.321010   -4.331477   -1.382521
     44          1           0        4.363223   -4.595951    0.014691
 ---------------------------------------------------------------------

 SCF Done:  E(ULC-wHPBE) =  -979.842358064     A.U. after   21 cycles

 The electronic state is 2-A.
 Alpha  occ. eigenvalues --  -14.31823 -10.17445 -10.17191 -10.17190 -10.13250
 Alpha  occ. eigenvalues --  -10.12863 -10.12862 -10.12644 -10.12644 -10.12596
 Alpha  occ. eigenvalues --  -10.12595 -10.11785 -10.11785 -10.11647 -10.11646
 Alpha  occ. eigenvalues --  -10.11539 -10.11539 -10.11529 -10.11529 -10.09936
 Alpha  occ. eigenvalues --  -10.08422 -10.08420 -10.07764 -10.07701 -10.07689
 Alpha  occ. eigenvalues --   -1.16230  -1.02973  -1.02487  -1.00786  -0.98201
 Alpha  occ. eigenvalues --   -0.93921  -0.93296  -0.91320  -0.91292  -0.91093
 Alpha  occ. eigenvalues --   -0.89415  -0.87152  -0.86276  -0.81116  -0.80897
 Alpha  occ. eigenvalues --   -0.78503  -0.77683  -0.77577  -0.75017  -0.73684
 Alpha  occ. eigenvalues --   -0.73094  -0.72125  -0.71976  -0.68071  -0.66877
 Alpha  occ. eigenvalues --   -0.66299  -0.66100  -0.63496  -0.63452  -0.63094
 Alpha  occ. eigenvalues --   -0.61370  -0.61229  -0.60687  -0.60319  -0.60022
 Alpha  occ. eigenvalues --   -0.59794  -0.59409  -0.58433  -0.57593  -0.56794
 Alpha  occ. eigenvalues --   -0.56726  -0.55837  -0.54756  -0.54180  -0.53935
 Alpha  occ. eigenvalues --   -0.53575  -0.52500  -0.52079  -0.52006  -0.50903
 Alpha  occ. eigenvalues --   -0.48913  -0.48263  -0.46480  -0.46118  -0.45806
 Alpha  occ. eigenvalues --   -0.44655  -0.44568  -0.41540  -0.40941  -0.38994
 Alpha virt. eigenvalues --   -0.12066  -0.11328  -0.11236  -0.09121  -0.08940
 Alpha virt. eigenvalues --   -0.07681  -0.05955  -0.04516  -0.01791  -0.00232
 Alpha virt. eigenvalues --    0.00085   0.01417   0.01522   0.02250   0.02371

  Beta  occ. eigenvalues --  -14.31018 -10.17454 -10.17235 -10.17234 -10.13063
  Beta  occ. eigenvalues --  -10.12729 -10.12727 -10.12510 -10.12509 -10.12465
  Beta  occ. eigenvalues --  -10.12464 -10.11696 -10.11694 -10.11642 -10.11642
  Beta  occ. eigenvalues --  -10.11591 -10.11591 -10.11574 -10.11574 -10.09952
  Beta  occ. eigenvalues --  -10.08385 -10.08383 -10.07740 -10.07715 -10.07687
  Beta  occ. eigenvalues --   -1.15194  -1.02741  -1.02292  -1.00520  -0.98090
  Beta  occ. eigenvalues --   -0.93699  -0.93101  -0.91175  -0.91142  -0.90950
  Beta  occ. eigenvalues --   -0.89100  -0.87113  -0.86009  -0.80865  -0.80660
  Beta  occ. eigenvalues --   -0.78258  -0.77523  -0.77459  -0.74857  -0.73626
  Beta  occ. eigenvalues --   -0.73010  -0.71953  -0.71823  -0.67960  -0.66746
  Beta  occ. eigenvalues --   -0.66056  -0.65429  -0.63371  -0.63348  -0.63003
  Beta  occ. eigenvalues --   -0.61293  -0.61093  -0.60557  -0.60191  -0.59913
  Beta  occ. eigenvalues --   -0.59726  -0.59284  -0.58393  -0.56969  -0.56460
  Beta  occ. eigenvalues --   -0.56318  -0.55722  -0.54675  -0.53841  -0.53606
  Beta  occ. eigenvalues --   -0.53346  -0.52305  -0.51984  -0.51905  -0.49954
  Beta  occ. eigenvalues --   -0.48870  -0.48126  -0.45489  -0.45461  -0.45181
  Beta  occ. eigenvalues --   -0.44185  -0.44145  -0.40858  -0.39894
  Beta virt. eigenvalues --   -0.24561  -0.11396  -0.10968  -0.10703  -0.08642
  Beta virt. eigenvalues --   -0.08536  -0.06824  -0.05857  -0.04050  -0.01695
  Beta virt. eigenvalues --   -0.00164   0.00163   0.01475   0.01581   0.02320

 Mulliken charges and spin densities:
               1          2
     1  C   -0.086490  -0.013927
     2  C   -0.105518   0.033603
     3  C   -0.124105   0.028380
     4  C   -0.086486  -0.013928
     5  C    0.026971  -0.018598
     6  C   -0.124090   0.028386
     7  H    0.134722  -0.001731
     8  H    0.139254  -0.001570
     9  H    0.128466   0.000649
    10  H    0.139250  -0.001570
    11  C    0.014984   0.140603
    12  C   -0.135171  -0.049930
    13  C   -0.135176  -0.049914
    14  C   -0.101048   0.093174
    15  C   -0.100911   0.093171
    16  C   -0.044138   0.010761
    17  H    0.164304   0.002347
    18  H    0.164301   0.002346
    19  H    0.176853  -0.004050
    20  H    0.176852  -0.004050
    21  H    0.128467   0.000649
    22  N    0.090286   0.359068
    23  C   -0.075307  -0.015319
    24  C   -0.089063   0.093610
    25  C   -0.086953   0.094327
    26  C   -0.104023  -0.052971
    27  C   -0.103994  -0.054502
    28  C   -0.064184   0.126778
    29  H    0.179261  -0.003918
    30  H    0.177245  -0.003999
    31  H    0.148062   0.002610
    32  H    0.147341   0.002745
    33  H    0.150822  -0.006305
    34  C   -0.075279  -0.015324
    35  C   -0.089193   0.093622
    36  C   -0.086843   0.094337
    37  C   -0.104021  -0.052984
    38  C   -0.104016  -0.054500
    39  C   -0.064179   0.126788
    40  H    0.179268  -0.003918
    41  H    0.177255  -0.004000
    42  H    0.148063   0.002610
    43  H    0.147338   0.002746
    44  H    0.150822  -0.006305
 Sum of Mulliken charges =   1.00000   1.00000

 Dipole moment (field-independent basis, Debye):
    X=              4.3559    Y=              0.0000    Z=             -0.0003  Tot=              4.3559
 Quadrupole moment (field-independent basis, Debye-Ang):
   XX=            -63.6327   YY=            -98.9787   ZZ=           -140.5436
   XY=              0.0002   XZ=             -0.0015   YZ=              0.4010

 Normal termination of Gaussian 16 at Sun Jan 17 13:28:34 2021.
