 Gaussian 16, Revision A.03,
 Gaussian 16:  EM64L-G16RevA.03 25-Dec-2016

 ----------------------------------------------------------------------
 #P LC-wHPBE/TZVP iop(3/107=0182400000, 3/108=0182400000) scf=(conver=6
 ,fermi,ndamp=35,noincfock,novaracc,vshift=500,xqc)
 ----------------------------------------------------------------------

 ----------
 H19 C24 N1
 ----------
 Symbolic Z-matrix:
 Charge =  0 Multiplicity = 1

                         Standard orientation:
 ---------------------------------------------------------------------
 Center     Atomic      Atomic             Coordinates (Angstroms)
 Number     Number       Type             X           Y           Z
 ---------------------------------------------------------------------
      1          6           0       -6.129184    1.201496    0.030856
      2          6           0       -6.830271    0.000001   -0.000182
      3          6           0       -4.738958    1.200713    0.032197
      4          6           0       -6.129235   -1.201473   -0.031153
      5          6           0       -4.021751   -0.000032   -0.000031
      6          6           0       -4.738962   -1.200719   -0.032361
      7          1           0       -7.919539    0.000045   -0.000190
      8          1           0       -4.198073    2.145454    0.081149
      9          1           0       -6.668779   -2.147537   -0.063412
     10          1           0       -4.198148   -2.145504   -0.081256
     11          6           0       -2.536892   -0.000014    0.000063
     12          6           0       -1.813363   -0.924286    0.760077
     13          6           0       -1.813258    0.924290   -0.759786
     14          6           0       -0.426027   -0.922473    0.771159
     15          6           0       -0.425899    0.922498   -0.770636
     16          6           0        0.288344    0.000018    0.000311
     17          1           0       -2.347573   -1.638662    1.386050
     18          1           0       -2.347350    1.638674   -1.385851
     19          1           0        0.115370   -1.638494    1.387158
     20          1           0        0.115571    1.638578   -1.386504
     21          1           0       -6.668762    2.147543    0.063006
     22          7           0        1.704382   -0.000003    0.000499
     23          6           0        2.414266    1.227770   -0.004035
     24          6           0        3.559402    1.382015   -0.792108
     25          6           0        1.979956    2.301413    0.780170
     26          6           0        4.257371    2.583383   -0.786193
     27          6           0        2.673527    3.505213    0.765830
     28          6           0        3.817854    3.653503   -0.012423
     29          1           0        3.900046    0.551242   -1.407814
     30          1           0        1.092486    2.185578    1.400082
     31          1           0        5.147916    2.686607   -1.405370
     32          1           0        2.321511    4.331764    1.382280
     33          1           0        4.363183    4.595952   -0.015664
     34          6           0        2.414241   -1.227791    0.004406
     35          6           0        3.559682   -1.382189    0.792032
     36          6           0        1.979686   -2.301249   -0.779869
     37          6           0        4.257673   -2.583532    0.785597
     38          6           0        2.673287   -3.505060   -0.766028
     39          6           0        3.817885   -3.653507    0.011769
     40          1           0        3.900521   -0.551523    1.407763
     41          1           0        1.092008   -2.185299   -1.399468
     42          1           0        5.148466   -2.686887    1.404399
     43          1           0        2.321010   -4.331477   -1.382521
     44          1           0        4.363223   -4.595951    0.014691
 ---------------------------------------------------------------------

 SCF Done:  E(RLC-wHPBE) =  -980.101405055     A.U. after   14 cycles

 The electronic state is 1-A.
 Alpha  occ. eigenvalues --  -14.12420 -10.03327 -10.03325 -10.03306 -10.00188
 Alpha  occ. eigenvalues --   -9.99901  -9.99293  -9.99293  -9.99289  -9.99289
 Alpha  occ. eigenvalues --   -9.99280  -9.99277  -9.99110  -9.99107  -9.99057
 Alpha  occ. eigenvalues --   -9.99056  -9.99026  -9.99026  -9.99018  -9.99018
 Alpha  occ. eigenvalues --   -9.99014  -9.99014  -9.98980  -9.98828  -9.98828
 Alpha  occ. eigenvalues --   -0.99727  -0.90222  -0.89222  -0.88616  -0.87204
 Alpha  occ. eigenvalues --   -0.81560  -0.79859  -0.78724  -0.78623  -0.78284
 Alpha  occ. eigenvalues --   -0.77956  -0.77273  -0.74219  -0.68031  -0.67628
 Alpha  occ. eigenvalues --   -0.65929  -0.65160  -0.64837  -0.63700  -0.63234
 Alpha  occ. eigenvalues --   -0.61613  -0.58954  -0.58811  -0.57335  -0.54658
 Alpha  occ. eigenvalues --   -0.53281  -0.52436  -0.52306  -0.50898  -0.50333
 Alpha  occ. eigenvalues --   -0.49426  -0.49181  -0.48970  -0.48296  -0.48053
 Alpha  occ. eigenvalues --   -0.47542  -0.47336  -0.47197  -0.46804  -0.44060
 Alpha  occ. eigenvalues --   -0.43763  -0.43640  -0.43414  -0.42877  -0.41548
 Alpha  occ. eigenvalues --   -0.40959  -0.40541  -0.39771  -0.39533  -0.39014
 Alpha  occ. eigenvalues --   -0.38803  -0.37062  -0.34003  -0.32773  -0.32745
 Alpha  occ. eigenvalues --   -0.31840  -0.31693  -0.31563  -0.30042  -0.24438
 Alpha virt. eigenvalues --    0.01026   0.02185   0.02582   0.03825   0.04530
 Alpha virt. eigenvalues --    0.04585   0.05133   0.08092   0.10207   0.10957
 Alpha virt. eigenvalues --    0.11118   0.11895   0.12838   0.13421   0.13896

 Mulliken charges:
               1
     1  C   -0.087458
     2  C   -0.122096
     3  C   -0.134112
     4  C   -0.087455
     5  C    0.000963
     6  C   -0.134096
     7  H    0.104952
     8  H    0.127594
     9  H    0.102290
    10  H    0.127588
    11  C    0.036933
    12  C   -0.152582
    13  C   -0.152590
    14  C   -0.125488
    15  C   -0.125356
    16  C   -0.032420
    17  H    0.124873
    18  H    0.124871
    19  H    0.145137
    20  H    0.145146
    21  H    0.102291
    22  N   -0.006604
    23  C   -0.056105
    24  C   -0.112087
    25  C   -0.108191
    26  C   -0.111299
    27  C   -0.111169
    28  C   -0.100974
    29  H    0.148380
    30  H    0.147047
    31  H    0.104876
    32  H    0.104787
    33  H    0.103547
    34  C   -0.056077
    35  C   -0.112218
    36  C   -0.108085
    37  C   -0.111295
    38  C   -0.111195
    39  C   -0.100971
    40  H    0.148379
    41  H    0.147065
    42  H    0.104876
    43  H    0.104784
    44  H    0.103546
 Sum of Mulliken charges =  -0.00000

 Dipole moment (field-independent basis, Debye):
    X=              0.2418    Y=              0.0002    Z=             -0.0003  Tot=              0.2418
 Quadrupole moment (field-independent basis, Debye-Ang):
   XX=           -134.5141   YY=           -133.2842   ZZ=           -148.5096
   XY=              0.0006   XZ=             -0.0009   YZ=              0.4541

 1\1\GINC-CASCADEB025\SP\RLC-wHPBE\TZVP\C24H19N1\RDU230\17-Jan-2021\0\\
 #P LC-wHPBE/TZVP iop(3/107=0182400000, 3/108=0182400000) scf=(conver=6
 ,fermi,ndamp=35,noincfock,novaracc,vshift=500,xqc)\\H19 C24 N1\\0,1\C,
 0,6.129184,1.201496,-0.030856\C,0,6.830271,0.000001,0.000182\C,0,4.738
 958,1.200713,-0.032197\C,0,6.129235,-1.201473,0.031153\C,0,4.021751,-0
 .000032,0.000031\C,0,4.738962,-1.200719,0.032361\H,0,7.919539,0.000045
 ,0.00019\H,0,4.198073,2.145454,-0.081149\H,0,6.668779,-2.147537,0.0634
 12\H,0,4.198148,-2.145504,0.081256\C,0,2.536892,-0.000014,-0.000063\C,

 Normal termination of Gaussian 16 at Sun Jan 17 15:25:35 2021.
