 Gaussian 16, Revision A.03,
 Gaussian 16:  EM64L-G16RevA.03 25-Dec-2016

 ----------------------------------------------------------------------
 #P LC-wHPBE/TZVP iop(3/107=0183500000, 3/108=0183500000) scf=(conver=6
 ,fermi,ndamp=35,noincfock,novaracc,vshift=500,xqc)
 ----------------------------------------------------------------------

 ----------
 H19 C24 N1
 ----------
 Symbolic Z-matrix:
 Charge =  0 Multiplicity = 1

                         Standard orientation:
 ---------------------------------------------------------------------
 Center     Atomic      Atomic             Coordinates (Angstroms)
 Number     Number       Type             X           Y           Z
 ---------------------------------------------------------------------
      1          6           0       -6.129184    1.201496    0.030856
      2          6           0       -6.830271    0.000001   -0.000182
      3          6           0       -4.738958    1.200713    0.032197
      4          6           0       -6.129235   -1.201473   -0.031153
      5          6           0       -4.021751   -0.000032   -0.000031
      6          6           0       -4.738962   -1.200719   -0.032361
      7          1           0       -7.919539    0.000045   -0.000190
      8          1           0       -4.198073    2.145454    0.081149
      9          1           0       -6.668779   -2.147537   -0.063412
     10          1           0       -4.198148   -2.145504   -0.081256
     11          6           0       -2.536892   -0.000014    0.000063
     12          6           0       -1.813363   -0.924286    0.760077
     13          6           0       -1.813258    0.924290   -0.759786
     14          6           0       -0.426027   -0.922473    0.771159
     15          6           0       -0.425899    0.922498   -0.770636
     16          6           0        0.288344    0.000018    0.000311
     17          1           0       -2.347573   -1.638662    1.386050
     18          1           0       -2.347350    1.638674   -1.385851
     19          1           0        0.115370   -1.638494    1.387158
     20          1           0        0.115571    1.638578   -1.386504
     21          1           0       -6.668762    2.147543    0.063006
     22          7           0        1.704382   -0.000003    0.000499
     23          6           0        2.414266    1.227770   -0.004035
     24          6           0        3.559402    1.382015   -0.792108
     25          6           0        1.979956    2.301413    0.780170
     26          6           0        4.257371    2.583383   -0.786193
     27          6           0        2.673527    3.505213    0.765830
     28          6           0        3.817854    3.653503   -0.012423
     29          1           0        3.900046    0.551242   -1.407814
     30          1           0        1.092486    2.185578    1.400082
     31          1           0        5.147916    2.686607   -1.405370
     32          1           0        2.321511    4.331764    1.382280
     33          1           0        4.363183    4.595952   -0.015664
     34          6           0        2.414241   -1.227791    0.004406
     35          6           0        3.559682   -1.382189    0.792032
     36          6           0        1.979686   -2.301249   -0.779869
     37          6           0        4.257673   -2.583532    0.785597
     38          6           0        2.673287   -3.505060   -0.766028
     39          6           0        3.817885   -3.653507    0.011769
     40          1           0        3.900521   -0.551523    1.407763
     41          1           0        1.092008   -2.185299   -1.399468
     42          1           0        5.148466   -2.686887    1.404399
     43          1           0        2.321010   -4.331477   -1.382521
     44          1           0        4.363223   -4.595951    0.014691
 ---------------------------------------------------------------------

 SCF Done:  E(RLC-wHPBE) =  -980.102899939     A.U. after   14 cycles

 The electronic state is 1-A.
 Alpha  occ. eigenvalues --  -14.12477 -10.03389 -10.03388 -10.03368 -10.00250
 Alpha  occ. eigenvalues --   -9.99963  -9.99355  -9.99355  -9.99351  -9.99351
 Alpha  occ. eigenvalues --   -9.99342  -9.99340  -9.99172  -9.99169  -9.99119
 Alpha  occ. eigenvalues --   -9.99118  -9.99088  -9.99087  -9.99080  -9.99079
 Alpha  occ. eigenvalues --   -9.99076  -9.99076  -9.99043  -9.98890  -9.98890
 Alpha  occ. eigenvalues --   -0.99791  -0.90288  -0.89288  -0.88682  -0.87268
 Alpha  occ. eigenvalues --   -0.81624  -0.79922  -0.78786  -0.78686  -0.78347
 Alpha  occ. eigenvalues --   -0.78019  -0.77335  -0.74279  -0.68089  -0.67686
 Alpha  occ. eigenvalues --   -0.65987  -0.65218  -0.64894  -0.63757  -0.63290
 Alpha  occ. eigenvalues --   -0.61669  -0.59009  -0.58866  -0.57390  -0.54711
 Alpha  occ. eigenvalues --   -0.53333  -0.52488  -0.52358  -0.50949  -0.50383
 Alpha  occ. eigenvalues --   -0.49477  -0.49231  -0.49020  -0.48345  -0.48102
 Alpha  occ. eigenvalues --   -0.47591  -0.47385  -0.47246  -0.46853  -0.44112
 Alpha  occ. eigenvalues --   -0.43814  -0.43690  -0.43462  -0.42929  -0.41593
 Alpha  occ. eigenvalues --   -0.41004  -0.40587  -0.39815  -0.39577  -0.39057
 Alpha  occ. eigenvalues --   -0.38847  -0.37106  -0.34042  -0.32810  -0.32781
 Alpha  occ. eigenvalues --   -0.31877  -0.31730  -0.31599  -0.30075  -0.24467
 Alpha virt. eigenvalues --    0.01052   0.02214   0.02610   0.03855   0.04561
 Alpha virt. eigenvalues --    0.04616   0.05163   0.08124   0.10236   0.10985
 Alpha virt. eigenvalues --    0.11147   0.11924   0.12866   0.13450   0.13924

 Mulliken charges:
               1
     1  C   -0.087524
     2  C   -0.122228
     3  C   -0.134262
     4  C   -0.087521
     5  C    0.001043
     6  C   -0.134246
     7  H    0.105046
     8  H    0.127709
     9  H    0.102386
    10  H    0.127703
    11  C    0.036836
    12  C   -0.152703
    13  C   -0.152710
    14  C   -0.125502
    15  C   -0.125371
    16  C   -0.032496
    17  H    0.124993
    18  H    0.124992
    19  H    0.145272
    20  H    0.145281
    21  H    0.102387
    22  N   -0.006951
    23  C   -0.056039
    24  C   -0.112170
    25  C   -0.108268
    26  C   -0.111399
    27  C   -0.111267
    28  C   -0.101107
    29  H    0.148510
    30  H    0.147178
    31  H    0.104970
    32  H    0.104881
    33  H    0.103644
    34  C   -0.056011
    35  C   -0.112301
    36  C   -0.108162
    37  C   -0.111395
    38  C   -0.111292
    39  C   -0.101104
    40  H    0.148508
    41  H    0.147197
    42  H    0.104969
    43  H    0.104878
    44  H    0.103643
 Sum of Mulliken charges =  -0.00000

 Dipole moment (field-independent basis, Debye):
    X=              0.2414    Y=              0.0002    Z=             -0.0003  Tot=              0.2414
 Quadrupole moment (field-independent basis, Debye-Ang):
   XX=           -134.5037   YY=           -133.2749   ZZ=           -148.5051
   XY=              0.0006   XZ=             -0.0009   YZ=              0.4540

 1\1\GINC-CASCADEB025\SP\RLC-wHPBE\TZVP\C24H19N1\RDU230\17-Jan-2021\0\\
 #P LC-wHPBE/TZVP iop(3/107=0183500000, 3/108=0183500000) scf=(conver=6
 ,fermi,ndamp=35,noincfock,novaracc,vshift=500,xqc)\\H19 C24 N1\\0,1\C,
 0,6.129184,1.201496,-0.030856\C,0,6.830271,0.000001,0.000182\C,0,4.738
 958,1.200713,-0.032197\C,0,6.129235,-1.201473,0.031153\C,0,4.021751,-0
 .000032,0.000031\C,0,4.738962,-1.200719,0.032361\H,0,7.919539,0.000045
 ,0.00019\H,0,4.198073,2.145454,-0.081149\H,0,6.668779,-2.147537,0.0634
 12\H,0,4.198148,-2.145504,0.081256\C,0,2.536892,-0.000014,-0.000063\C,

 Normal termination of Gaussian 16 at Sun Jan 17 15:52:46 2021.
