 Gaussian 16, Revision A.03,
 Gaussian 16:  EM64L-G16RevA.03 25-Dec-2016

 ----------------------------------------------------------------------
 #P LC-wHPBE/TZVP iop(3/107=0182800000, 3/108=0182800000) scf=(conver=6
 ,fermi,ndamp=35,noincfock,novaracc,vshift=500,xqc)
 ----------------------------------------------------------------------

 ----------
 H19 C24 N1
 ----------
 Symbolic Z-matrix:
 Charge =  0 Multiplicity = 1

                         Standard orientation:
 ---------------------------------------------------------------------
 Center     Atomic      Atomic             Coordinates (Angstroms)
 Number     Number       Type             X           Y           Z
 ---------------------------------------------------------------------
      1          6           0       -6.129184    1.201496    0.030856
      2          6           0       -6.830271    0.000001   -0.000182
      3          6           0       -4.738958    1.200713    0.032197
      4          6           0       -6.129235   -1.201473   -0.031153
      5          6           0       -4.021751   -0.000032   -0.000031
      6          6           0       -4.738962   -1.200719   -0.032361
      7          1           0       -7.919539    0.000045   -0.000190
      8          1           0       -4.198073    2.145454    0.081149
      9          1           0       -6.668779   -2.147537   -0.063412
     10          1           0       -4.198148   -2.145504   -0.081256
     11          6           0       -2.536892   -0.000014    0.000063
     12          6           0       -1.813363   -0.924286    0.760077
     13          6           0       -1.813258    0.924290   -0.759786
     14          6           0       -0.426027   -0.922473    0.771159
     15          6           0       -0.425899    0.922498   -0.770636
     16          6           0        0.288344    0.000018    0.000311
     17          1           0       -2.347573   -1.638662    1.386050
     18          1           0       -2.347350    1.638674   -1.385851
     19          1           0        0.115370   -1.638494    1.387158
     20          1           0        0.115571    1.638578   -1.386504
     21          1           0       -6.668762    2.147543    0.063006
     22          7           0        1.704382   -0.000003    0.000499
     23          6           0        2.414266    1.227770   -0.004035
     24          6           0        3.559402    1.382015   -0.792108
     25          6           0        1.979956    2.301413    0.780170
     26          6           0        4.257371    2.583383   -0.786193
     27          6           0        2.673527    3.505213    0.765830
     28          6           0        3.817854    3.653503   -0.012423
     29          1           0        3.900046    0.551242   -1.407814
     30          1           0        1.092486    2.185578    1.400082
     31          1           0        5.147916    2.686607   -1.405370
     32          1           0        2.321511    4.331764    1.382280
     33          1           0        4.363183    4.595952   -0.015664
     34          6           0        2.414241   -1.227791    0.004406
     35          6           0        3.559682   -1.382189    0.792032
     36          6           0        1.979686   -2.301249   -0.779869
     37          6           0        4.257673   -2.583532    0.785597
     38          6           0        2.673287   -3.505060   -0.766028
     39          6           0        3.817885   -3.653507    0.011769
     40          1           0        3.900521   -0.551523    1.407763
     41          1           0        1.092008   -2.185299   -1.399468
     42          1           0        5.148466   -2.686887    1.404399
     43          1           0        2.321010   -4.331477   -1.382521
     44          1           0        4.363223   -4.595951    0.014691
 ---------------------------------------------------------------------

 SCF Done:  E(RLC-wHPBE) =  -980.101948876     A.U. after   14 cycles

 The electronic state is 1-A.
 Alpha  occ. eigenvalues --  -14.12441 -10.03350 -10.03348 -10.03328 -10.00211
 Alpha  occ. eigenvalues --   -9.99923  -9.99316  -9.99316  -9.99312  -9.99312
 Alpha  occ. eigenvalues --   -9.99303  -9.99300  -9.99133  -9.99129  -9.99079
 Alpha  occ. eigenvalues --   -9.99078  -9.99048  -9.99048  -9.99041  -9.99040
 Alpha  occ. eigenvalues --   -9.99036  -9.99036  -9.99003  -9.98851  -9.98850
 Alpha  occ. eigenvalues --   -0.99750  -0.90246  -0.89246  -0.88640  -0.87227
 Alpha  occ. eigenvalues --   -0.81583  -0.79882  -0.78746  -0.78646  -0.78307
 Alpha  occ. eigenvalues --   -0.77979  -0.77296  -0.74241  -0.68052  -0.67649
 Alpha  occ. eigenvalues --   -0.65950  -0.65181  -0.64858  -0.63720  -0.63255
 Alpha  occ. eigenvalues --   -0.61633  -0.58974  -0.58831  -0.57355  -0.54678
 Alpha  occ. eigenvalues --   -0.53300  -0.52455  -0.52325  -0.50917  -0.50351
 Alpha  occ. eigenvalues --   -0.49444  -0.49199  -0.48988  -0.48314  -0.48071
 Alpha  occ. eigenvalues --   -0.47560  -0.47354  -0.47215  -0.46822  -0.44079
 Alpha  occ. eigenvalues --   -0.43782  -0.43658  -0.43431  -0.42896  -0.41564
 Alpha  occ. eigenvalues --   -0.40976  -0.40558  -0.39787  -0.39549  -0.39029
 Alpha  occ. eigenvalues --   -0.38819  -0.37078  -0.34017  -0.32787  -0.32758
 Alpha  occ. eigenvalues --   -0.31854  -0.31707  -0.31576  -0.30054  -0.24448
 Alpha virt. eigenvalues --    0.01036   0.02196   0.02592   0.03836   0.04542
 Alpha virt. eigenvalues --    0.04596   0.05144   0.08103   0.10218   0.10967
 Alpha virt. eigenvalues --    0.11129   0.11905   0.12848   0.13432   0.13906

 Mulliken charges:
               1
     1  C   -0.087482
     2  C   -0.122144
     3  C   -0.134167
     4  C   -0.087479
     5  C    0.000992
     6  C   -0.134150
     7  H    0.104986
     8  H    0.127636
     9  H    0.102325
    10  H    0.127630
    11  C    0.036898
    12  C   -0.152626
    13  C   -0.152634
    14  C   -0.125493
    15  C   -0.125361
    16  C   -0.032448
    17  H    0.124916
    18  H    0.124915
    19  H    0.145186
    20  H    0.145195
    21  H    0.102326
    22  N   -0.006730
    23  C   -0.056081
    24  C   -0.112117
    25  C   -0.108218
    26  C   -0.111335
    27  C   -0.111204
    28  C   -0.101022
    29  H    0.148427
    30  H    0.147095
    31  H    0.104910
    32  H    0.104821
    33  H    0.103582
    34  C   -0.056053
    35  C   -0.112248
    36  C   -0.108113
    37  C   -0.111331
    38  C   -0.111230
    39  C   -0.101019
    40  H    0.148426
    41  H    0.147113
    42  H    0.104909
    43  H    0.104818
    44  H    0.103581
 Sum of Mulliken charges =  -0.00000

 Dipole moment (field-independent basis, Debye):
    X=              0.2417    Y=              0.0002    Z=             -0.0003  Tot=              0.2417
 Quadrupole moment (field-independent basis, Debye-Ang):
   XX=           -134.5103   YY=           -133.2808   ZZ=           -148.5080
   XY=              0.0006   XZ=             -0.0009   YZ=              0.4540

 1\1\GINC-CASCADEB025\SP\RLC-wHPBE\TZVP\C24H19N1\RDU230\17-Jan-2021\0\\
 #P LC-wHPBE/TZVP iop(3/107=0182800000, 3/108=0182800000) scf=(conver=6
 ,fermi,ndamp=35,noincfock,novaracc,vshift=500,xqc)\\H19 C24 N1\\0,1\C,
 0,6.129184,1.201496,-0.030856\C,0,6.830271,0.000001,0.000182\C,0,4.738
 958,1.200713,-0.032197\C,0,6.129235,-1.201473,0.031153\C,0,4.021751,-0
 .000032,0.000031\C,0,4.738962,-1.200719,0.032361\H,0,7.919539,0.000045
 ,0.00019\H,0,4.198073,2.145454,-0.081149\H,0,6.668779,-2.147537,0.0634
 12\H,0,4.198148,-2.145504,0.081256\C,0,2.536892,-0.000014,-0.000063\C,

 Normal termination of Gaussian 16 at Sun Jan 17 16:19:59 2021.
