 Gaussian 16, Revision A.03,
 Gaussian 16:  EM64L-G16RevA.03 25-Dec-2016

 ----------------------------------------------------------------------
 #P LC-wHPBE/TZVP iop(3/107=0328100000, 3/108=0328100000) scf=(conver=6
 ,fermi,ndamp=35,noincfock,novaracc,vshift=500,xqc)
 ----------------------------------------------------------------------

 ----------
 H19 C24 N1
 ----------
 Symbolic Z-matrix:
 Charge =  1 Multiplicity = 2

                         Standard orientation:
 ---------------------------------------------------------------------
 Center     Atomic      Atomic             Coordinates (Angstroms)
 Number     Number       Type             X           Y           Z
 ---------------------------------------------------------------------
      1          6           0       -6.129184    1.201496    0.030856
      2          6           0       -6.830271    0.000001   -0.000182
      3          6           0       -4.738958    1.200713    0.032197
      4          6           0       -6.129235   -1.201473   -0.031153
      5          6           0       -4.021751   -0.000032   -0.000031
      6          6           0       -4.738962   -1.200719   -0.032361
      7          1           0       -7.919539    0.000045   -0.000190
      8          1           0       -4.198073    2.145454    0.081149
      9          1           0       -6.668779   -2.147537   -0.063412
     10          1           0       -4.198148   -2.145504   -0.081256
     11          6           0       -2.536892   -0.000014    0.000063
     12          6           0       -1.813363   -0.924286    0.760077
     13          6           0       -1.813258    0.924290   -0.759786
     14          6           0       -0.426027   -0.922473    0.771159
     15          6           0       -0.425899    0.922498   -0.770636
     16          6           0        0.288344    0.000018    0.000311
     17          1           0       -2.347573   -1.638662    1.386050
     18          1           0       -2.347350    1.638674   -1.385851
     19          1           0        0.115370   -1.638494    1.387158
     20          1           0        0.115571    1.638578   -1.386504
     21          1           0       -6.668762    2.147543    0.063006
     22          7           0        1.704382   -0.000003    0.000499
     23          6           0        2.414266    1.227770   -0.004035
     24          6           0        3.559402    1.382015   -0.792108
     25          6           0        1.979956    2.301413    0.780170
     26          6           0        4.257371    2.583383   -0.786193
     27          6           0        2.673527    3.505213    0.765830
     28          6           0        3.817854    3.653503   -0.012423
     29          1           0        3.900046    0.551242   -1.407814
     30          1           0        1.092486    2.185578    1.400082
     31          1           0        5.147916    2.686607   -1.405370
     32          1           0        2.321511    4.331764    1.382280
     33          1           0        4.363183    4.595952   -0.015664
     34          6           0        2.414241   -1.227791    0.004406
     35          6           0        3.559682   -1.382189    0.792032
     36          6           0        1.979686   -2.301249   -0.779869
     37          6           0        4.257673   -2.583532    0.785597
     38          6           0        2.673287   -3.505060   -0.766028
     39          6           0        3.817885   -3.653507    0.011769
     40          1           0        3.900521   -0.551523    1.407763
     41          1           0        1.092008   -2.185299   -1.399468
     42          1           0        5.148466   -2.686887    1.404399
     43          1           0        2.321010   -4.331477   -1.382521
     44          1           0        4.363223   -4.595951    0.014691
 ---------------------------------------------------------------------

 SCF Done:  E(ULC-wHPBE) =  -980.008490248     A.U. after   18 cycles

 The electronic state is 2-A.
 Alpha  occ. eigenvalues --  -14.41754 -10.26565 -10.26367 -10.26365 -10.22256
 Alpha  occ. eigenvalues --  -10.21996 -10.21994 -10.21802 -10.21801 -10.21758
 Alpha  occ. eigenvalues --  -10.21758 -10.20840 -10.20840 -10.20446 -10.20446
 Alpha  occ. eigenvalues --  -10.20446 -10.20444 -10.20439 -10.20439 -10.18524
 Alpha  occ. eigenvalues --  -10.17023 -10.17020 -10.16297 -10.16239 -10.16224
 Alpha  occ. eigenvalues --   -1.26140  -1.12340  -1.11897  -1.10055  -1.07166
 Alpha  occ. eigenvalues --   -1.02670  -1.02090  -1.00003  -0.99970  -0.99793
 Alpha  occ. eigenvalues --   -0.97912  -0.95420  -0.94442  -0.88918  -0.88638
 Alpha  occ. eigenvalues --   -0.86220  -0.85294  -0.85158  -0.82329  -0.80874
 Alpha  occ. eigenvalues --   -0.80250  -0.79167  -0.79062  -0.74926  -0.73575
 Alpha  occ. eigenvalues --   -0.73261  -0.72890  -0.69868  -0.69859  -0.69479
 Alpha  occ. eigenvalues --   -0.67671  -0.67529  -0.66816  -0.66627  -0.66157
 Alpha  occ. eigenvalues --   -0.65981  -0.65496  -0.64387  -0.63945  -0.63031
 Alpha  occ. eigenvalues --   -0.62886  -0.61609  -0.60345  -0.60137  -0.59510
 Alpha  occ. eigenvalues --   -0.59186  -0.58178  -0.57532  -0.57434  -0.56429
 Alpha  occ. eigenvalues --   -0.53965  -0.53245  -0.50679  -0.50231  -0.49891
 Alpha  occ. eigenvalues --   -0.48585  -0.48536  -0.45457  -0.44459  -0.42413
 Alpha virt. eigenvalues --   -0.09617  -0.08814  -0.08585  -0.06210  -0.06071
 Alpha virt. eigenvalues --   -0.04870  -0.02855  -0.01295   0.00836   0.02507
 Alpha virt. eigenvalues --    0.02837   0.04052   0.04144   0.04930   0.05000

  Beta  occ. eigenvalues --  -14.40774 -10.26653 -10.26486 -10.26483 -10.22012
  Beta  occ. eigenvalues --  -10.21802 -10.21799 -10.21612 -10.21611 -10.21572
  Beta  occ. eigenvalues --  -10.21572 -10.20643 -10.20643 -10.20561 -10.20558
  Beta  occ. eigenvalues --  -10.20557 -10.20557 -10.20545 -10.20545 -10.18565
  Beta  occ. eigenvalues --  -10.16974 -10.16971 -10.16283 -10.16267 -10.16219
  Beta  occ. eigenvalues --   -1.24881  -1.12083  -1.11682  -1.09711  -1.07035
  Beta  occ. eigenvalues --   -1.02427  -1.01890  -0.99825  -0.99814  -0.99632
  Beta  occ. eigenvalues --   -0.97454  -0.95377  -0.94089  -0.88609  -0.88337
  Beta  occ. eigenvalues --   -0.85897  -0.85117  -0.85042  -0.82157  -0.80807
  Beta  occ. eigenvalues --   -0.80150  -0.78990  -0.78899  -0.74767  -0.73412
  Beta  occ. eigenvalues --   -0.72693  -0.71974  -0.69742  -0.69717  -0.69393
  Beta  occ. eigenvalues --   -0.67591  -0.67340  -0.66649  -0.66450  -0.66008
  Beta  occ. eigenvalues --   -0.65887  -0.65283  -0.64344  -0.63102  -0.62323
  Beta  occ. eigenvalues --   -0.62309  -0.61443  -0.60246  -0.59401  -0.59153
  Beta  occ. eigenvalues --   -0.58840  -0.57825  -0.57423  -0.57331  -0.54623
  Beta  occ. eigenvalues --   -0.53911  -0.53068  -0.49418  -0.49124  -0.48949
  Beta  occ. eigenvalues --   -0.47960  -0.47803  -0.44351  -0.43119
  Beta virt. eigenvalues --   -0.23154  -0.08868  -0.08309  -0.08048  -0.05445
  Beta virt. eigenvalues --   -0.05441  -0.03533  -0.02743  -0.00509   0.00927
  Beta virt. eigenvalues --    0.02581   0.02923   0.04109   0.04215   0.04977

 Mulliken charges and spin densities:
               1          2
     1  C   -0.105154  -0.026748
     2  C   -0.129436   0.041607
     3  C   -0.149732   0.040838
     4  C   -0.105152  -0.026749
     5  C    0.026049  -0.043338
     6  C   -0.149713   0.040846
     7  H    0.152841  -0.002000
     8  H    0.160037  -0.001939
     9  H    0.147248   0.001177
    10  H    0.160033  -0.001940
    11  C    0.000004   0.198655
    12  C   -0.154329  -0.113207
    13  C   -0.154330  -0.113195
    14  C   -0.105566   0.146346
    15  C   -0.105445   0.146343
    16  C   -0.072534  -0.050561
    17  H    0.187675   0.004675
    18  H    0.187672   0.004675
    19  H    0.203145  -0.006032
    20  H    0.203143  -0.006032
    21  H    0.147249   0.001177
    22  N    0.077892   0.441718
    23  C   -0.089277  -0.074298
    24  C   -0.102919   0.143593
    25  C   -0.101024   0.143994
    26  C   -0.124365  -0.109385
    27  C   -0.124177  -0.111092
    28  C   -0.082567   0.179054
    29  H    0.204844  -0.005696
    30  H    0.203629  -0.005776
    31  H    0.167558   0.004829
    32  H    0.166999   0.004946
    33  H    0.170496  -0.008334
    34  C   -0.089248  -0.074307
    35  C   -0.103037   0.143610
    36  C   -0.100928   0.144010
    37  C   -0.124364  -0.109402
    38  C   -0.124196  -0.111098
    39  C   -0.082563   0.179069
    40  H    0.204850  -0.005696
    41  H    0.203640  -0.005778
    42  H    0.167559   0.004829
    43  H    0.166997   0.004947
    44  H    0.170496  -0.008334
 Sum of Mulliken charges =   1.00000   1.00000

 Dipole moment (field-independent basis, Debye):
    X=              4.9358    Y=             -0.0000    Z=             -0.0002  Tot=              4.9358
 Quadrupole moment (field-independent basis, Debye-Ang):
   XX=            -64.9854   YY=            -97.8536   ZZ=           -140.1154
   XY=              0.0001   XZ=             -0.0016   YZ=              0.4021

 Normal termination of Gaussian 16 at Sun Jan 17 12:31:32 2021.
