 Gaussian 16, Revision A.03,
 Gaussian 16:  EM64L-G16RevA.03 25-Dec-2016

 ----------------------------------------------------------------------
 #P LC-wHPBE/TZVP iop(3/107=0218600000, 3/108=0218600000) scf=(conver=6
 ,fermi,ndamp=35,noincfock,novaracc,vshift=500,xqc)
 ----------------------------------------------------------------------

 ----------
 H15 C18 N1
 ----------
 Symbolic Z-matrix:
 Charge =  0 Multiplicity = 1

                         Standard orientation:
 ---------------------------------------------------------------------
 Center     Atomic      Atomic             Coordinates (Angstroms)
 Number     Number       Type             X           Y           Z
 ---------------------------------------------------------------------
      1          7           0       -0.000022    0.000126   -0.001279
      2          6           0       -0.411410    1.356873   -0.000484
      3          6           0       -1.495388    1.769410    0.781179
      4          6           0        0.260509    2.302668   -0.781717
      5          6           0       -1.900964    3.098133    0.771590
      6          6           0       -0.140310    3.632823   -0.770872
      7          6           0       -1.224951    4.039050    0.000666
      8          1           0       -2.020023    1.039168    1.394849
      9          1           0        1.101979    1.987206   -1.396157
     10          1           0       -2.747815    3.402281    1.385878
     11          1           0        0.394842    4.356658   -1.384611
     12          1           0       -1.541008    5.080966    0.001027
     13          6           0       -0.969209   -1.034631   -0.000488
     14          6           0       -2.123113   -0.926761   -0.783450
     15          6           0       -0.785513   -2.178628    0.782922
     16          6           0       -3.074603   -1.938977   -0.772694
     17          6           0       -1.733510   -3.194160    0.773528
     18          6           0       -2.885344   -3.080217    0.000886
     19          1           0       -2.269925   -0.041128   -1.399284
     20          1           0        0.108384   -2.266911    1.398014
     21          1           0       -3.968013   -1.838326   -1.388087
     22          1           0       -1.574421   -4.078745    1.389358
     23          1           0       -3.629741   -3.874779    0.001646
     24          6           0        1.380705   -0.322058   -0.000436
     25          6           0        2.279720    0.408815    0.782988
     26          6           0        1.863904   -1.375397   -0.783483
     27          6           0        3.633193    0.095502    0.773256
     28          6           0        3.216226   -1.693556   -0.772877
     29          6           0        4.110133   -0.958995    0.000466
     30          1           0        1.909375    1.227058    1.398174
     31          1           0        1.170022   -1.945208   -1.399095
     32          1           0        4.319906    0.675407    1.389003
     33          1           0        3.575681   -2.517564   -1.388348
     34          1           0        5.170466   -1.206335    0.000686
 ---------------------------------------------------------------------

 SCF Done:  E(RLC-wHPBE) =  -749.236930763     A.U. after   14 cycles

 The electronic state is 1-A.
 Alpha  occ. eigenvalues --  -14.14149 -10.05291 -10.05291 -10.05288 -10.01236
 Alpha  occ. eigenvalues --  -10.01236 -10.01236 -10.01235 -10.01233 -10.01233
 Alpha  occ. eigenvalues --  -10.00940 -10.00939 -10.00939 -10.00938 -10.00936
 Alpha  occ. eigenvalues --  -10.00934 -10.00761 -10.00760 -10.00756  -1.01698
 Alpha  occ. eigenvalues --   -0.91285  -0.91283  -0.89284  -0.81793  -0.81791
 Alpha  occ. eigenvalues --   -0.80279  -0.80158  -0.80157  -0.76627  -0.69184
 Alpha  occ. eigenvalues --   -0.69182  -0.66829  -0.66258  -0.66256  -0.63541
 Alpha  occ. eigenvalues --   -0.60446  -0.60446  -0.57082  -0.54640  -0.54638
 Alpha  occ. eigenvalues --   -0.53469  -0.51703  -0.51702  -0.50567  -0.49713
 Alpha  occ. eigenvalues --   -0.49711  -0.48955  -0.48645  -0.48644  -0.45376
 Alpha  occ. eigenvalues --   -0.45103  -0.45101  -0.43466  -0.42219  -0.42216
 Alpha  occ. eigenvalues --   -0.41765  -0.40597  -0.40595  -0.38289  -0.33786
 Alpha  occ. eigenvalues --   -0.33784  -0.33744  -0.32513  -0.32511  -0.25482
 Alpha virt. eigenvalues --    0.03150   0.03502   0.03504   0.05626   0.05628
 Alpha virt. eigenvalues --    0.08391   0.11106   0.12055   0.12057   0.14446
 Alpha virt. eigenvalues --    0.14447   0.14584   0.14970   0.16166   0.16167

 Mulliken charges:
               1
     1  N   -0.017775
     2  C   -0.059124
     3  C   -0.114668
     4  C   -0.114800
     5  C   -0.115311
     6  C   -0.115217
     7  C   -0.106348
     8  H    0.154055
     9  H    0.153967
    10  H    0.108222
    11  H    0.108227
    12  H    0.107049
    13  C   -0.060247
    14  C   -0.114437
    15  C   -0.113995
    16  C   -0.115237
    17  C   -0.115341
    18  C   -0.106238
    19  H    0.153893
    20  H    0.153893
    21  H    0.108232
    22  H    0.108233
    23  H    0.107078
    24  C   -0.060238
    25  C   -0.114246
    26  C   -0.114140
    27  C   -0.115352
    28  C   -0.115267
    29  C   -0.106220
    30  H    0.153962
    31  H    0.153833
    32  H    0.108242
    33  H    0.108243
    34  H    0.107074
 Sum of Mulliken charges =  -0.00000

 Dipole moment (field-independent basis, Debye):
    X=              0.0011    Y=             -0.0028    Z=              0.0006  Tot=              0.0031
 Quadrupole moment (field-independent basis, Debye-Ang):
   XX=           -103.3392   YY=           -103.3633   ZZ=           -111.1251
   XY=              0.0068   XZ=              0.0020   YZ=              0.0004

 1\1\GINC-CASCADEB040\SP\RLC-wHPBE\TZVP\C18H15N1\RDU230\17-Jan-2021\0\\
 #P LC-wHPBE/TZVP iop(3/107=0218600000, 3/108=0218600000) scf=(conver=6
 ,fermi,ndamp=35,noincfock,novaracc,vshift=500,xqc)\\H15 C18 N1\\0,1\N,
 0,0.000022,-0.000126,-0.001279\C,0,0.411521,-1.356839,-0.000484\C,0,1.
 495533,-1.769287,0.781179\C,0,-0.26032,-2.302689,-0.781717\C,0,1.90121
 8,-3.097977,0.77159\C,0,0.140608,-3.632811,-0.770872\C,0,1.225282,-4.0
 3895,0.000666\H,0,2.020108,-1.039002,1.394849\H,0,-1.101816,-1.987296,
 -1.396157\H,0,2.748094,-3.402056,1.385878\H,0,-0.394485,-4.35669,-1.38

 Normal termination of Gaussian 16 at Sun Jan 17 20:20:26 2021.
