 Gaussian 16, Revision A.03,
 Gaussian 16:  EM64L-G16RevA.03 25-Dec-2016

 ----------------------------------------------------------------------
 #P LC-wHPBE/TZVP iop(3/107=0194300000, 3/108=0194300000) scf=(conver=6
 ,fermi,ndamp=35,noincfock,novaracc,vshift=500,xqc)
 ----------------------------------------------------------------------

 ----------
 H15 C18 N1
 ----------
 Symbolic Z-matrix:
 Charge =  0 Multiplicity = 1

                         Standard orientation:
 ---------------------------------------------------------------------
 Center     Atomic      Atomic             Coordinates (Angstroms)
 Number     Number       Type             X           Y           Z
 ---------------------------------------------------------------------
      1          7           0       -0.000022    0.000126   -0.001279
      2          6           0       -0.411410    1.356873   -0.000484
      3          6           0       -1.495388    1.769410    0.781179
      4          6           0        0.260509    2.302668   -0.781717
      5          6           0       -1.900964    3.098133    0.771590
      6          6           0       -0.140310    3.632823   -0.770872
      7          6           0       -1.224951    4.039050    0.000666
      8          1           0       -2.020023    1.039168    1.394849
      9          1           0        1.101979    1.987206   -1.396157
     10          1           0       -2.747815    3.402281    1.385878
     11          1           0        0.394842    4.356658   -1.384611
     12          1           0       -1.541008    5.080966    0.001027
     13          6           0       -0.969209   -1.034631   -0.000488
     14          6           0       -2.123113   -0.926761   -0.783450
     15          6           0       -0.785513   -2.178628    0.782922
     16          6           0       -3.074603   -1.938977   -0.772694
     17          6           0       -1.733510   -3.194160    0.773528
     18          6           0       -2.885344   -3.080217    0.000886
     19          1           0       -2.269925   -0.041128   -1.399284
     20          1           0        0.108384   -2.266911    1.398014
     21          1           0       -3.968013   -1.838326   -1.388087
     22          1           0       -1.574421   -4.078745    1.389358
     23          1           0       -3.629741   -3.874779    0.001646
     24          6           0        1.380705   -0.322058   -0.000436
     25          6           0        2.279720    0.408815    0.782988
     26          6           0        1.863904   -1.375397   -0.783483
     27          6           0        3.633193    0.095502    0.773256
     28          6           0        3.216226   -1.693556   -0.772877
     29          6           0        4.110133   -0.958995    0.000466
     30          1           0        1.909375    1.227058    1.398174
     31          1           0        1.170022   -1.945208   -1.399095
     32          1           0        4.319906    0.675407    1.389003
     33          1           0        3.575681   -2.517564   -1.388348
     34          1           0        5.170466   -1.206335    0.000686
 ---------------------------------------------------------------------

 SCF Done:  E(RLC-wHPBE) =  -749.212453895     A.U. after   14 cycles

 The electronic state is 1-A.
 Alpha  occ. eigenvalues --  -14.12888 -10.03905 -10.03905 -10.03903  -9.99866
 Alpha  occ. eigenvalues --   -9.99865  -9.99865  -9.99865  -9.99862  -9.99862
 Alpha  occ. eigenvalues --   -9.99580  -9.99579  -9.99579  -9.99578  -9.99576
 Alpha  occ. eigenvalues --   -9.99575  -9.99395  -9.99394  -9.99390  -1.00289
 Alpha  occ. eigenvalues --   -0.89838  -0.89836  -0.87857  -0.80420  -0.80418
 Alpha  occ. eigenvalues --   -0.78908  -0.78792  -0.78790  -0.75306  -0.67946
 Alpha  occ. eigenvalues --   -0.67944  -0.65593  -0.65035  -0.65033  -0.62348
 Alpha  occ. eigenvalues --   -0.59291  -0.59291  -0.55945  -0.53560  -0.53557
 Alpha  occ. eigenvalues --   -0.52372  -0.50643  -0.50643  -0.49518  -0.48688
 Alpha  occ. eigenvalues --   -0.48686  -0.47919  -0.47624  -0.47622  -0.44313
 Alpha  occ. eigenvalues --   -0.44024  -0.44022  -0.42522  -0.41296  -0.41293
 Alpha  occ. eigenvalues --   -0.40824  -0.39695  -0.39692  -0.37385  -0.33064
 Alpha  occ. eigenvalues --   -0.33061  -0.33019  -0.31805  -0.31804  -0.24896
 Alpha virt. eigenvalues --    0.02615   0.02971   0.02973   0.05038   0.05040
 Alpha virt. eigenvalues --    0.07789   0.10556   0.11506   0.11508   0.13914
 Alpha virt. eigenvalues --    0.13916   0.14080   0.14436   0.15635   0.15636

 Mulliken charges:
               1
     1  N   -0.009620
     2  C   -0.059893
     3  C   -0.112214
     4  C   -0.112352
     5  C   -0.113009
     6  C   -0.112916
     7  C   -0.102598
     8  H    0.150576
     9  H    0.150487
    10  H    0.105497
    11  H    0.105502
    12  H    0.104253
    13  C   -0.061013
    14  C   -0.111994
    15  C   -0.111541
    16  C   -0.112933
    17  C   -0.113035
    18  C   -0.102491
    19  H    0.150414
    20  H    0.150413
    21  H    0.105507
    22  H    0.105508
    23  H    0.104281
    24  C   -0.061010
    25  C   -0.111797
    26  C   -0.111690
    27  C   -0.113047
    28  C   -0.112962
    29  C   -0.102473
    30  H    0.150483
    31  H    0.150354
    32  H    0.105518
    33  H    0.105518
    34  H    0.104278
 Sum of Mulliken charges =  -0.00000

 Dipole moment (field-independent basis, Debye):
    X=              0.0012    Y=             -0.0028    Z=              0.0006  Tot=              0.0031
 Quadrupole moment (field-independent basis, Debye-Ang):
   XX=           -103.5004   YY=           -103.5244   ZZ=           -111.2150
   XY=              0.0068   XZ=              0.0020   YZ=              0.0004

 1\1\GINC-CASCADEB040\SP\RLC-wHPBE\TZVP\C18H15N1\RDU230\17-Jan-2021\0\\
 #P LC-wHPBE/TZVP iop(3/107=0194300000, 3/108=0194300000) scf=(conver=6
 ,fermi,ndamp=35,noincfock,novaracc,vshift=500,xqc)\\H15 C18 N1\\0,1\N,
 0,0.000022,-0.000126,-0.001279\C,0,0.411521,-1.356839,-0.000484\C,0,1.
 495533,-1.769287,0.781179\C,0,-0.26032,-2.302689,-0.781717\C,0,1.90121
 8,-3.097977,0.77159\C,0,0.140608,-3.632811,-0.770872\C,0,1.225282,-4.0
 3895,0.000666\H,0,2.020108,-1.039002,1.394849\H,0,-1.101816,-1.987296,
 -1.396157\H,0,2.748094,-3.402056,1.385878\H,0,-0.394485,-4.35669,-1.38

 Normal termination of Gaussian 16 at Sun Jan 17 21:07:33 2021.
