 Gaussian 16, Revision A.03,
 Gaussian 16:  EM64L-G16RevA.03 25-Dec-2016

 ----------------------------------------------------------------------
 #P LC-wHPBE/TZVP iop(3/107=0156200000, 3/108=0156200000) scf=(conver=6
 ,fermi,ndamp=35,noincfock,novaracc,vshift=500,xqc)
 ----------------------------------------------------------------------

 ----------
 H15 C18 N1
 ----------
 Symbolic Z-matrix:
 Charge =  0 Multiplicity = 1

                         Standard orientation:
 ---------------------------------------------------------------------
 Center     Atomic      Atomic             Coordinates (Angstroms)
 Number     Number       Type             X           Y           Z
 ---------------------------------------------------------------------
      1          7           0       -0.000022    0.000126   -0.001279
      2          6           0       -0.411410    1.356873   -0.000484
      3          6           0       -1.495388    1.769410    0.781179
      4          6           0        0.260509    2.302668   -0.781717
      5          6           0       -1.900964    3.098133    0.771590
      6          6           0       -0.140310    3.632823   -0.770872
      7          6           0       -1.224951    4.039050    0.000666
      8          1           0       -2.020023    1.039168    1.394849
      9          1           0        1.101979    1.987206   -1.396157
     10          1           0       -2.747815    3.402281    1.385878
     11          1           0        0.394842    4.356658   -1.384611
     12          1           0       -1.541008    5.080966    0.001027
     13          6           0       -0.969209   -1.034631   -0.000488
     14          6           0       -2.123113   -0.926761   -0.783450
     15          6           0       -0.785513   -2.178628    0.782922
     16          6           0       -3.074603   -1.938977   -0.772694
     17          6           0       -1.733510   -3.194160    0.773528
     18          6           0       -2.885344   -3.080217    0.000886
     19          1           0       -2.269925   -0.041128   -1.399284
     20          1           0        0.108384   -2.266911    1.398014
     21          1           0       -3.968013   -1.838326   -1.388087
     22          1           0       -1.574421   -4.078745    1.389358
     23          1           0       -3.629741   -3.874779    0.001646
     24          6           0        1.380705   -0.322058   -0.000436
     25          6           0        2.279720    0.408815    0.782988
     26          6           0        1.863904   -1.375397   -0.783483
     27          6           0        3.633193    0.095502    0.773256
     28          6           0        3.216226   -1.693556   -0.772877
     29          6           0        4.110133   -0.958995    0.000466
     30          1           0        1.909375    1.227058    1.398174
     31          1           0        1.170022   -1.945208   -1.399095
     32          1           0        4.319906    0.675407    1.389003
     33          1           0        3.575681   -2.517564   -1.388348
     34          1           0        5.170466   -1.206335    0.000686
 ---------------------------------------------------------------------

 SCF Done:  E(RLC-wHPBE) =  -749.172333604     A.U. after   13 cycles

 The electronic state is 1-A.
 Alpha  occ. eigenvalues --  -14.10911 -10.01735 -10.01735 -10.01733  -9.97717
 Alpha  occ. eigenvalues --   -9.97717  -9.97716  -9.97716  -9.97713  -9.97713
 Alpha  occ. eigenvalues --   -9.97448  -9.97448  -9.97447  -9.97447  -9.97444
 Alpha  occ. eigenvalues --   -9.97443  -9.97250  -9.97250  -9.97245  -0.98088
 Alpha  occ. eigenvalues --   -0.87570  -0.87568  -0.85612  -0.78237  -0.78235
 Alpha  occ. eigenvalues --   -0.76728  -0.76617  -0.76615  -0.73188  -0.65931
 Alpha  occ. eigenvalues --   -0.65929  -0.63583  -0.63038  -0.63037  -0.60387
 Alpha  occ. eigenvalues --   -0.57375  -0.57374  -0.54050  -0.51751  -0.51748
 Alpha  occ. eigenvalues --   -0.50546  -0.48866  -0.48865  -0.47755  -0.46963
 Alpha  occ. eigenvalues --   -0.46962  -0.46176  -0.45906  -0.45905  -0.42519
 Alpha  occ. eigenvalues --   -0.42185  -0.42183  -0.40913  -0.39721  -0.39718
 Alpha  occ. eigenvalues --   -0.39215  -0.38149  -0.38147  -0.35812  -0.31744
 Alpha  occ. eigenvalues --   -0.31742  -0.31692  -0.30512  -0.30510  -0.23833
 Alpha virt. eigenvalues --    0.01574   0.01949   0.01951   0.03910   0.03913
 Alpha virt. eigenvalues --    0.06632   0.09503   0.10454   0.10455   0.12881
 Alpha virt. eigenvalues --    0.12882   0.13091   0.13401   0.14605   0.14606

 Mulliken charges:
               1
     1  N    0.002085
     2  C   -0.062198
     3  C   -0.109794
     4  C   -0.109944
     5  C   -0.109751
     6  C   -0.109658
     7  C   -0.098477
     8  H    0.146439
     9  H    0.146351
    10  H    0.102609
    11  H    0.102614
    12  H    0.101241
    13  C   -0.063310
    14  C   -0.109596
    15  C   -0.109126
    16  C   -0.109672
    17  C   -0.109769
    18  C   -0.098375
    19  H    0.146278
    20  H    0.146274
    21  H    0.102618
    22  H    0.102620
    23  H    0.101270
    24  C   -0.063318
    25  C   -0.109388
    26  C   -0.109278
    27  C   -0.109784
    28  C   -0.109698
    29  C   -0.098358
    30  H    0.146346
    31  H    0.146220
    32  H    0.102630
    33  H    0.102630
    34  H    0.101266
 Sum of Mulliken charges =  -0.00000

 Dipole moment (field-independent basis, Debye):
    X=              0.0012    Y=             -0.0029    Z=              0.0006  Tot=              0.0032
 Quadrupole moment (field-independent basis, Debye-Ang):
   XX=           -103.7420   YY=           -103.7660   ZZ=           -111.3562
   XY=              0.0068   XZ=              0.0020   YZ=              0.0004

 1\1\GINC-CASCADEB040\SP\RLC-wHPBE\TZVP\C18H15N1\RDU230\17-Jan-2021\0\\
 #P LC-wHPBE/TZVP iop(3/107=0156200000, 3/108=0156200000) scf=(conver=6
 ,fermi,ndamp=35,noincfock,novaracc,vshift=500,xqc)\\H15 C18 N1\\0,1\N,
 0,0.000022,-0.000126,-0.001279\C,0,0.411521,-1.356839,-0.000484\C,0,1.
 495533,-1.769287,0.781179\C,0,-0.26032,-2.302689,-0.781717\C,0,1.90121
 8,-3.097977,0.77159\C,0,0.140608,-3.632811,-0.770872\C,0,1.225282,-4.0
 3895,0.000666\H,0,2.020108,-1.039002,1.394849\H,0,-1.101816,-1.987296,
 -1.396157\H,0,2.748094,-3.402056,1.385878\H,0,-0.394485,-4.35669,-1.38

 Normal termination of Gaussian 16 at Sun Jan 17 20:08:50 2021.
