 Gaussian 16, Revision A.03,
 Gaussian 16:  EM64L-G16RevA.03 25-Dec-2016

 ----------------------------------------------------------------------
 #P LC-wHPBE/TZVP iop(3/107=0196600000, 3/108=0196600000) scf=(conver=6
 ,fermi,ndamp=35,noincfock,novaracc,vshift=500,xqc)
 ----------------------------------------------------------------------

 ----------
 H15 C18 N1
 ----------
 Symbolic Z-matrix:
 Charge =  1 Multiplicity = 2

                         Standard orientation:
 ---------------------------------------------------------------------
 Center     Atomic      Atomic             Coordinates (Angstroms)
 Number     Number       Type             X           Y           Z
 ---------------------------------------------------------------------
      1          7           0       -0.000022    0.000126   -0.001279
      2          6           0       -0.411410    1.356873   -0.000484
      3          6           0       -1.495388    1.769410    0.781179
      4          6           0        0.260509    2.302668   -0.781717
      5          6           0       -1.900964    3.098133    0.771590
      6          6           0       -0.140310    3.632823   -0.770872
      7          6           0       -1.224951    4.039050    0.000666
      8          1           0       -2.020023    1.039168    1.394849
      9          1           0        1.101979    1.987206   -1.396157
     10          1           0       -2.747815    3.402281    1.385878
     11          1           0        0.394842    4.356658   -1.384611
     12          1           0       -1.541008    5.080966    0.001027
     13          6           0       -0.969209   -1.034631   -0.000488
     14          6           0       -2.123113   -0.926761   -0.783450
     15          6           0       -0.785513   -2.178628    0.782922
     16          6           0       -3.074603   -1.938977   -0.772694
     17          6           0       -1.733510   -3.194160    0.773528
     18          6           0       -2.885344   -3.080217    0.000886
     19          1           0       -2.269925   -0.041128   -1.399284
     20          1           0        0.108384   -2.266911    1.398014
     21          1           0       -3.968013   -1.838326   -1.388087
     22          1           0       -1.574421   -4.078745    1.389358
     23          1           0       -3.629741   -3.874779    0.001646
     24          6           0        1.380705   -0.322058   -0.000436
     25          6           0        2.279720    0.408815    0.782988
     26          6           0        1.863904   -1.375397   -0.783483
     27          6           0        3.633193    0.095502    0.773256
     28          6           0        3.216226   -1.693556   -0.772877
     29          6           0        4.110133   -0.958995    0.000466
     30          1           0        1.909375    1.227058    1.398174
     31          1           0        1.170022   -1.945208   -1.399095
     32          1           0        4.319906    0.675407    1.389003
     33          1           0        3.575681   -2.517564   -1.388348
     34          1           0        5.170466   -1.206335    0.000686
 ---------------------------------------------------------------------

 SCF Done:  E(ULC-wHPBE) =  -748.965173119     A.U. after   16 cycles

 The electronic state is 2-A.
 Alpha  occ. eigenvalues --  -14.34571 -10.19585 -10.19581 -10.19579 -10.14942
 Alpha  occ. eigenvalues --  -10.14940 -10.14939 -10.14939 -10.14938 -10.14937
 Alpha  occ. eigenvalues --  -10.14070 -10.14067 -10.14066 -10.13723 -10.13721
 Alpha  occ. eigenvalues --  -10.13721 -10.13720 -10.13718 -10.13718  -1.18834
 Alpha  occ. eigenvalues --   -1.04890  -1.04889  -1.02788  -0.95612  -0.95611
 Alpha  occ. eigenvalues --   -0.93388  -0.93336  -0.93335  -0.90488  -0.83245
 Alpha  occ. eigenvalues --   -0.83244  -0.80366  -0.79551  -0.79550  -0.76709
 Alpha  occ. eigenvalues --   -0.74145  -0.74142  -0.70154  -0.68179  -0.68178
 Alpha  occ. eigenvalues --   -0.68177  -0.65051  -0.65051  -0.63297  -0.63121
 Alpha  occ. eigenvalues --   -0.63118  -0.62174  -0.61713  -0.61710  -0.59767
 Alpha  occ. eigenvalues --   -0.58778  -0.58777  -0.56410  -0.55730  -0.55384
 Alpha  occ. eigenvalues --   -0.55384  -0.53836  -0.53835  -0.52822  -0.47826
 Alpha  occ. eigenvalues --   -0.47825  -0.47393  -0.46158  -0.46156  -0.41968
 Alpha virt. eigenvalues --   -0.11508  -0.11506  -0.11232  -0.08988  -0.08987
 Alpha virt. eigenvalues --   -0.07071  -0.01777  -0.00165  -0.00165   0.01761
 Alpha virt. eigenvalues --    0.01764   0.02351   0.02520   0.04082   0.04082

  Beta  occ. eigenvalues --  -14.33688 -10.19634 -10.19630 -10.19628 -10.14792
  Beta  occ. eigenvalues --  -10.14790 -10.14789 -10.14789 -10.14788 -10.14787
  Beta  occ. eigenvalues --  -10.13899 -10.13897 -10.13896 -10.13788 -10.13786
  Beta  occ. eigenvalues --  -10.13786 -10.13781 -10.13779 -10.13779  -1.17693
  Beta  occ. eigenvalues --   -1.04668  -1.04667  -1.02469  -0.95392  -0.95391
  Beta  occ. eigenvalues --   -0.93229  -0.93173  -0.93172  -0.89890  -0.82963
  Beta  occ. eigenvalues --   -0.82962  -0.80082  -0.79406  -0.79405  -0.76534
  Beta  occ. eigenvalues --   -0.73975  -0.73973  -0.69972  -0.67977  -0.67977
  Beta  occ. eigenvalues --   -0.67272  -0.64945  -0.64944  -0.63216  -0.62960
  Beta  occ. eigenvalues --   -0.62958  -0.62043  -0.61633  -0.61631  -0.59067
  Beta  occ. eigenvalues --   -0.58278  -0.58277  -0.56289  -0.55274  -0.55273
  Beta  occ. eigenvalues --   -0.54743  -0.53724  -0.53723  -0.51657  -0.46990
  Beta  occ. eigenvalues --   -0.46641  -0.46640  -0.45538  -0.45536
  Beta virt. eigenvalues --   -0.24948  -0.10965  -0.10785  -0.10784  -0.08491
  Beta virt. eigenvalues --   -0.08491  -0.05835  -0.01674  -0.00090  -0.00090
  Beta virt. eigenvalues --    0.01826   0.01828   0.02443   0.02562   0.04145

 Mulliken charges and spin densities:
               1          2
     1  N    0.096559   0.396388
     2  C   -0.080980  -0.019601
     3  C   -0.087740   0.107378
     4  C   -0.087879   0.107423
     5  C   -0.106803  -0.064651
     6  C   -0.106724  -0.064678
     7  C   -0.062343   0.145545
     8  H    0.185715  -0.004508
     9  H    0.185666  -0.004510
    10  H    0.153096   0.003152
    11  H    0.153101   0.003151
    12  H    0.156449  -0.007145
    13  C   -0.082152  -0.019568
    14  C   -0.087618   0.107173
    15  C   -0.087107   0.107132
    16  C   -0.106767  -0.064532
    17  C   -0.106850  -0.064491
    18  C   -0.062291   0.145181
    19  H    0.185577  -0.004502
    20  H    0.185543  -0.004500
    21  H    0.153079   0.003149
    22  H    0.153081   0.003147
    23  H    0.156441  -0.007127
    24  C   -0.082120  -0.019574
    25  C   -0.087424   0.107113
    26  C   -0.087293   0.107140
    27  C   -0.106845  -0.064482
    28  C   -0.106770  -0.064503
    29  C   -0.062305   0.145124
    30  H    0.185603  -0.004498
    31  H    0.185498  -0.004500
    32  H    0.153085   0.003146
    33  H    0.153089   0.003147
    34  H    0.156432  -0.007125
 Sum of Mulliken charges =   1.00000   1.00000

 Dipole moment (field-independent basis, Debye):
    X=             -0.0011    Y=              0.0023    Z=              0.0006  Tot=              0.0027
 Quadrupole moment (field-independent basis, Debye-Ang):
   XX=            -67.6518   YY=            -67.6583   ZZ=           -102.9605
   XY=              0.0019   XZ=              0.0005   YZ=             -0.0003

 Normal termination of Gaussian 16 at Sun Jan 17 21:25:38 2021.
