 Gaussian 16, Revision A.03,
 Gaussian 16:  EM64L-G16RevA.03 25-Dec-2016

 ----------------------------------------------------------------------
 #P LC-wHPBE/TZVP iop(3/107=0198000000, 3/108=0198000000) scf=(conver=6
 ,fermi,ndamp=35,noincfock,novaracc,vshift=500,xqc)
 ----------------------------------------------------------------------

 ----------
 H15 C18 N1
 ----------
 Symbolic Z-matrix:
 Charge =  0 Multiplicity = 1

                         Standard orientation:
 ---------------------------------------------------------------------
 Center     Atomic      Atomic             Coordinates (Angstroms)
 Number     Number       Type             X           Y           Z
 ---------------------------------------------------------------------
      1          7           0       -0.000022    0.000126   -0.001279
      2          6           0       -0.411410    1.356873   -0.000484
      3          6           0       -1.495388    1.769410    0.781179
      4          6           0        0.260509    2.302668   -0.781717
      5          6           0       -1.900964    3.098133    0.771590
      6          6           0       -0.140310    3.632823   -0.770872
      7          6           0       -1.224951    4.039050    0.000666
      8          1           0       -2.020023    1.039168    1.394849
      9          1           0        1.101979    1.987206   -1.396157
     10          1           0       -2.747815    3.402281    1.385878
     11          1           0        0.394842    4.356658   -1.384611
     12          1           0       -1.541008    5.080966    0.001027
     13          6           0       -0.969209   -1.034631   -0.000488
     14          6           0       -2.123113   -0.926761   -0.783450
     15          6           0       -0.785513   -2.178628    0.782922
     16          6           0       -3.074603   -1.938977   -0.772694
     17          6           0       -1.733510   -3.194160    0.773528
     18          6           0       -2.885344   -3.080217    0.000886
     19          1           0       -2.269925   -0.041128   -1.399284
     20          1           0        0.108384   -2.266911    1.398014
     21          1           0       -3.968013   -1.838326   -1.388087
     22          1           0       -1.574421   -4.078745    1.389358
     23          1           0       -3.629741   -3.874779    0.001646
     24          6           0        1.380705   -0.322058   -0.000436
     25          6           0        2.279720    0.408815    0.782988
     26          6           0        1.863904   -1.375397   -0.783483
     27          6           0        3.633193    0.095502    0.773256
     28          6           0        3.216226   -1.693556   -0.772877
     29          6           0        4.110133   -0.958995    0.000466
     30          1           0        1.909375    1.227058    1.398174
     31          1           0        1.170022   -1.945208   -1.399095
     32          1           0        4.319906    0.675407    1.389003
     33          1           0        3.575681   -2.517564   -1.388348
     34          1           0        5.170466   -1.206335    0.000686
 ---------------------------------------------------------------------

 SCF Done:  E(RLC-wHPBE) =  -749.216260498     A.U. after   14 cycles

 The electronic state is 1-A.
 Alpha  occ. eigenvalues --  -14.13080 -10.04116 -10.04116 -10.04114 -10.00074
 Alpha  occ. eigenvalues --  -10.00074 -10.00074 -10.00073 -10.00071 -10.00071
 Alpha  occ. eigenvalues --   -9.99787  -9.99786  -9.99786  -9.99785  -9.99783
 Alpha  occ. eigenvalues --   -9.99782  -9.99603  -9.99602  -9.99598  -1.00503
 Alpha  occ. eigenvalues --   -0.90058  -0.90056  -0.88075  -0.80630  -0.80628
 Alpha  occ. eigenvalues --   -0.79118  -0.79001  -0.79000  -0.75509  -0.68137
 Alpha  occ. eigenvalues --   -0.68135  -0.65784  -0.65224  -0.65222  -0.62533
 Alpha  occ. eigenvalues --   -0.59471  -0.59470  -0.56122  -0.53728  -0.53725
 Alpha  occ. eigenvalues --   -0.52543  -0.50808  -0.50808  -0.49682  -0.48848
 Alpha  occ. eigenvalues --   -0.48846  -0.48080  -0.47783  -0.47782  -0.44479
 Alpha  occ. eigenvalues --   -0.44193  -0.44191  -0.42670  -0.41440  -0.41438
 Alpha  occ. eigenvalues --   -0.40971  -0.39836  -0.39834  -0.37528  -0.33179
 Alpha  occ. eigenvalues --   -0.33177  -0.33135  -0.31918  -0.31917  -0.24990
 Alpha virt. eigenvalues --    0.02703   0.03058   0.03059   0.05134   0.05136
 Alpha virt. eigenvalues --    0.07887   0.10645   0.11595   0.11597   0.14001
 Alpha virt. eigenvalues --    0.14002   0.14162   0.14523   0.15722   0.15723

 Mulliken charges:
               1
     1  N   -0.010838
     2  C   -0.059735
     3  C   -0.112546
     4  C   -0.112683
     5  C   -0.113351
     6  C   -0.113258
     7  C   -0.103120
     8  H    0.151067
     9  H    0.150978
    10  H    0.105871
    11  H    0.105876
    12  H    0.104638
    13  C   -0.060856
    14  C   -0.112324
    15  C   -0.111873
    16  C   -0.113275
    17  C   -0.113378
    18  C   -0.103012
    19  H    0.150905
    20  H    0.150904
    21  H    0.105881
    22  H    0.105882
    23  H    0.104667
    24  C   -0.060852
    25  C   -0.112128
    26  C   -0.112021
    27  C   -0.113390
    28  C   -0.113304
    29  C   -0.102994
    30  H    0.150974
    31  H    0.150845
    32  H    0.105892
    33  H    0.105892
    34  H    0.104663
 Sum of Mulliken charges =  -0.00000

 Dipole moment (field-independent basis, Debye):
    X=              0.0012    Y=             -0.0028    Z=              0.0006  Tot=              0.0031
 Quadrupole moment (field-independent basis, Debye-Ang):
   XX=           -103.4761   YY=           -103.5002   ZZ=           -111.2012
   XY=              0.0068   XZ=              0.0020   YZ=              0.0004

 1\1\GINC-CASCADEB040\SP\RLC-wHPBE\TZVP\C18H15N1\RDU230\17-Jan-2021\0\\
 #P LC-wHPBE/TZVP iop(3/107=0198000000, 3/108=0198000000) scf=(conver=6
 ,fermi,ndamp=35,noincfock,novaracc,vshift=500,xqc)\\H15 C18 N1\\0,1\N,
 0,0.000022,-0.000126,-0.001279\C,0,0.411521,-1.356839,-0.000484\C,0,1.
 495533,-1.769287,0.781179\C,0,-0.26032,-2.302689,-0.781717\C,0,1.90121
 8,-3.097977,0.77159\C,0,0.140608,-3.632811,-0.770872\C,0,1.225282,-4.0
 3895,0.000666\H,0,2.020108,-1.039002,1.394849\H,0,-1.101816,-1.987296,
 -1.396157\H,0,2.748094,-3.402056,1.385878\H,0,-0.394485,-4.35669,-1.38

 Normal termination of Gaussian 16 at Sun Jan 17 20:32:32 2021.
