 Gaussian 16, Revision A.03,
 Gaussian 16:  EM64L-G16RevA.03 25-Dec-2016

 ----------------------------------------------------------------------
 #P LC-wHPBE/TZVP iop(3/107=0182100000, 3/108=0182100000) scf=(conver=6
 ,fermi,ndamp=35,noincfock,novaracc,vshift=500,xqc)
 ----------------------------------------------------------------------

 ----------
 H15 C18 N1
 ----------
 Symbolic Z-matrix:
 Charge =  0 Multiplicity = 1

                         Standard orientation:
 ---------------------------------------------------------------------
 Center     Atomic      Atomic             Coordinates (Angstroms)
 Number     Number       Type             X           Y           Z
 ---------------------------------------------------------------------
      1          7           0       -0.000022    0.000126   -0.001279
      2          6           0       -0.411410    1.356873   -0.000484
      3          6           0       -1.495388    1.769410    0.781179
      4          6           0        0.260509    2.302668   -0.781717
      5          6           0       -1.900964    3.098133    0.771590
      6          6           0       -0.140310    3.632823   -0.770872
      7          6           0       -1.224951    4.039050    0.000666
      8          1           0       -2.020023    1.039168    1.394849
      9          1           0        1.101979    1.987206   -1.396157
     10          1           0       -2.747815    3.402281    1.385878
     11          1           0        0.394842    4.356658   -1.384611
     12          1           0       -1.541008    5.080966    0.001027
     13          6           0       -0.969209   -1.034631   -0.000488
     14          6           0       -2.123113   -0.926761   -0.783450
     15          6           0       -0.785513   -2.178628    0.782922
     16          6           0       -3.074603   -1.938977   -0.772694
     17          6           0       -1.733510   -3.194160    0.773528
     18          6           0       -2.885344   -3.080217    0.000886
     19          1           0       -2.269925   -0.041128   -1.399284
     20          1           0        0.108384   -2.266911    1.398014
     21          1           0       -3.968013   -1.838326   -1.388087
     22          1           0       -1.574421   -4.078745    1.389358
     23          1           0       -3.629741   -3.874779    0.001646
     24          6           0        1.380705   -0.322058   -0.000436
     25          6           0        2.279720    0.408815    0.782988
     26          6           0        1.863904   -1.375397   -0.783483
     27          6           0        3.633193    0.095502    0.773256
     28          6           0        3.216226   -1.693556   -0.772877
     29          6           0        4.110133   -0.958995    0.000466
     30          1           0        1.909375    1.227058    1.398174
     31          1           0        1.170022   -1.945208   -1.399095
     32          1           0        4.319906    0.675407    1.389003
     33          1           0        3.575681   -2.517564   -1.388348
     34          1           0        5.170466   -1.206335    0.000686
 ---------------------------------------------------------------------

 SCF Done:  E(RLC-wHPBE) =  -749.199747834     A.U. after   14 cycles

 The electronic state is 1-A.
 Alpha  occ. eigenvalues --  -14.12255 -10.03210 -10.03210 -10.03208  -9.99178
 Alpha  occ. eigenvalues --   -9.99177  -9.99177  -9.99177  -9.99174  -9.99174
 Alpha  occ. eigenvalues --   -9.98897  -9.98897  -9.98896  -9.98895  -9.98893
 Alpha  occ. eigenvalues --   -9.98892  -9.98709  -9.98708  -9.98704  -0.99583
 Alpha  occ. eigenvalues --   -0.89111  -0.89108  -0.87138  -0.79724  -0.79722
 Alpha  occ. eigenvalues --   -0.78213  -0.78099  -0.78098  -0.74634  -0.67310
 Alpha  occ. eigenvalues --   -0.67308  -0.64959  -0.64405  -0.64404  -0.61731
 Alpha  occ. eigenvalues --   -0.58691  -0.58691  -0.55353  -0.52996  -0.52993
 Alpha  occ. eigenvalues --   -0.51801  -0.50090  -0.50089  -0.48969  -0.48151
 Alpha  occ. eigenvalues --   -0.48150  -0.47376  -0.47089  -0.47088  -0.43755
 Alpha  occ. eigenvalues --   -0.43454  -0.43452  -0.42024  -0.40809  -0.40806
 Alpha  occ. eigenvalues --   -0.40327  -0.39217  -0.39215  -0.36903  -0.32667
 Alpha  occ. eigenvalues --   -0.32665  -0.32620  -0.31416  -0.31415  -0.24576
 Alpha virt. eigenvalues --    0.02310   0.02670   0.02672   0.04706   0.04708
 Alpha virt. eigenvalues --    0.07448   0.10245   0.11196   0.11198   0.13611
 Alpha virt. eigenvalues --    0.13613   0.13791   0.14133   0.15333   0.15334

 Mulliken charges:
               1
     1  N   -0.005692
     2  C   -0.060508
     3  C   -0.111234
     4  C   -0.111376
     5  C   -0.111909
     6  C   -0.111815
     7  C   -0.101020
     8  H    0.149064
     9  H    0.148976
    10  H    0.104375
    11  H    0.104379
    12  H    0.103092
    13  C   -0.061626
    14  C   -0.111021
    15  C   -0.110563
    16  C   -0.111831
    17  C   -0.111932
    18  C   -0.100915
    19  H    0.148902
    20  H    0.148901
    21  H    0.104384
    22  H    0.104386
    23  H    0.103121
    24  C   -0.061626
    25  C   -0.110821
    26  C   -0.110712
    27  C   -0.111946
    28  C   -0.111859
    29  C   -0.100897
    30  H    0.148971
    31  H    0.148843
    32  H    0.104396
    33  H    0.104396
    34  H    0.103117
 Sum of Mulliken charges =  -0.00000

 Dipole moment (field-independent basis, Debye):
    X=              0.0012    Y=             -0.0029    Z=              0.0006  Tot=              0.0031
 Quadrupole moment (field-independent basis, Debye-Ang):
   XX=           -103.5793   YY=           -103.6034   ZZ=           -111.2604
   XY=              0.0068   XZ=              0.0020   YZ=              0.0004

 1\1\GINC-CASCADEB040\SP\RLC-wHPBE\TZVP\C18H15N1\RDU230\17-Jan-2021\0\\
 #P LC-wHPBE/TZVP iop(3/107=0182100000, 3/108=0182100000) scf=(conver=6
 ,fermi,ndamp=35,noincfock,novaracc,vshift=500,xqc)\\H15 C18 N1\\0,1\N,
 0,0.000022,-0.000126,-0.001279\C,0,0.411521,-1.356839,-0.000484\C,0,1.
 495533,-1.769287,0.781179\C,0,-0.26032,-2.302689,-0.781717\C,0,1.90121
 8,-3.097977,0.77159\C,0,0.140608,-3.632811,-0.770872\C,0,1.225282,-4.0
 3895,0.000666\H,0,2.020108,-1.039002,1.394849\H,0,-1.101816,-1.987296,
 -1.396157\H,0,2.748094,-3.402056,1.385878\H,0,-0.394485,-4.35669,-1.38

 Normal termination of Gaussian 16 at Sun Jan 17 20:44:13 2021.
