 Gaussian 16, Revision A.03,
 Gaussian 16:  EM64L-G16RevA.03 25-Dec-2016

 ----------------------------------------------------------------------
 #P LC-wHPBE/TZVP iop(3/107=0328100000, 3/108=0328100000) scf=(conver=6
 ,fermi,ndamp=35,noincfock,novaracc,vshift=500,xqc)
 ----------------------------------------------------------------------

 ----------
 H15 C18 N1
 ----------
 Symbolic Z-matrix:
 Charge =  0 Multiplicity = 1

                         Standard orientation:
 ---------------------------------------------------------------------
 Center     Atomic      Atomic             Coordinates (Angstroms)
 Number     Number       Type             X           Y           Z
 ---------------------------------------------------------------------
      1          7           0       -0.000022    0.000126   -0.001279
      2          6           0       -0.411410    1.356873   -0.000484
      3          6           0       -1.495388    1.769410    0.781179
      4          6           0        0.260509    2.302668   -0.781717
      5          6           0       -1.900964    3.098133    0.771590
      6          6           0       -0.140310    3.632823   -0.770872
      7          6           0       -1.224951    4.039050    0.000666
      8          1           0       -2.020023    1.039168    1.394849
      9          1           0        1.101979    1.987206   -1.396157
     10          1           0       -2.747815    3.402281    1.385878
     11          1           0        0.394842    4.356658   -1.384611
     12          1           0       -1.541008    5.080966    0.001027
     13          6           0       -0.969209   -1.034631   -0.000488
     14          6           0       -2.123113   -0.926761   -0.783450
     15          6           0       -0.785513   -2.178628    0.782922
     16          6           0       -3.074603   -1.938977   -0.772694
     17          6           0       -1.733510   -3.194160    0.773528
     18          6           0       -2.885344   -3.080217    0.000886
     19          1           0       -2.269925   -0.041128   -1.399284
     20          1           0        0.108384   -2.266911    1.398014
     21          1           0       -3.968013   -1.838326   -1.388087
     22          1           0       -1.574421   -4.078745    1.389358
     23          1           0       -3.629741   -3.874779    0.001646
     24          6           0        1.380705   -0.322058   -0.000436
     25          6           0        2.279720    0.408815    0.782988
     26          6           0        1.863904   -1.375397   -0.783483
     27          6           0        3.633193    0.095502    0.773256
     28          6           0        3.216226   -1.693556   -0.772877
     29          6           0        4.110133   -0.958995    0.000466
     30          1           0        1.909375    1.227058    1.398174
     31          1           0        1.170022   -1.945208   -1.399095
     32          1           0        4.319906    0.675407    1.389003
     33          1           0        3.575681   -2.517564   -1.388348
     34          1           0        5.170466   -1.206335    0.000686
 ---------------------------------------------------------------------

 SCF Done:  E(RLC-wHPBE) =  -749.323964730     A.U. after   14 cycles

 The electronic state is 1-A.
 Alpha  occ. eigenvalues --  -14.19864 -10.11552 -10.11552 -10.11548 -10.07418
 Alpha  occ. eigenvalues --  -10.07418 -10.07418 -10.07417 -10.07415 -10.07414
 Alpha  occ. eigenvalues --  -10.07074 -10.07073 -10.07072 -10.07071 -10.07070
 Alpha  occ. eigenvalues --  -10.07068 -10.06908 -10.06907 -10.06903  -1.07947
 Alpha  occ. eigenvalues --   -0.97613  -0.97611  -0.95472  -0.87605  -0.87603
 Alpha  occ. eigenvalues --   -0.86079  -0.85931  -0.85930  -0.82124  -0.74183
 Alpha  occ. eigenvalues --   -0.74181  -0.71828  -0.71181  -0.71180  -0.68276
 Alpha  occ. eigenvalues --   -0.64918  -0.64918  -0.61461  -0.58802  -0.58800
 Alpha  occ. eigenvalues --   -0.57712  -0.55760  -0.55759  -0.54578  -0.53612
 Alpha  occ. eigenvalues --   -0.53611  -0.52892  -0.52545  -0.52544  -0.49303
 Alpha  occ. eigenvalues --   -0.48979  -0.48977  -0.47009  -0.45686  -0.45684
 Alpha  occ. eigenvalues --   -0.45275  -0.43975  -0.43973  -0.41523  -0.36134
 Alpha  occ. eigenvalues --   -0.36132  -0.36102  -0.34808  -0.34807  -0.27461
 Alpha virt. eigenvalues --    0.04655   0.05054   0.05055   0.07346   0.07348
 Alpha virt. eigenvalues --    0.10156   0.12718   0.13655   0.13657   0.15955
 Alpha virt. eigenvalues --    0.15956   0.15992   0.16487   0.17677   0.17678

 Mulliken charges:
               1
     1  N   -0.054958
     2  C   -0.061588
     3  C   -0.131214
     4  C   -0.131330
     5  C   -0.125674
     6  C   -0.125584
     7  C   -0.128392
     8  H    0.174007
     9  H    0.173924
    10  H    0.125081
    11  H    0.125085
    12  H    0.124135
    13  C   -0.062705
    14  C   -0.130964
    15  C   -0.130557
    16  C   -0.125606
    17  C   -0.125713
    18  C   -0.128273
    19  H    0.173848
    20  H    0.173849
    21  H    0.125091
    22  H    0.125091
    23  H    0.124161
    24  C   -0.062681
    25  C   -0.130789
    26  C   -0.130692
    27  C   -0.125715
    28  C   -0.125640
    29  C   -0.128254
    30  H    0.173914
    31  H    0.173787
    32  H    0.125099
    33  H    0.125100
    34  H    0.124157
 Sum of Mulliken charges =  -0.00000

 Dipole moment (field-independent basis, Debye):
    X=              0.0011    Y=             -0.0027    Z=              0.0007  Tot=              0.0030
 Quadrupole moment (field-independent basis, Debye-Ang):
   XX=           -102.5926   YY=           -102.6170   ZZ=           -110.7607
   XY=              0.0068   XZ=              0.0020   YZ=              0.0003

 1\1\GINC-CASCADEB040\SP\RLC-wHPBE\TZVP\C18H15N1\RDU230\17-Jan-2021\0\\
 #P LC-wHPBE/TZVP iop(3/107=0328100000, 3/108=0328100000) scf=(conver=6
 ,fermi,ndamp=35,noincfock,novaracc,vshift=500,xqc)\\H15 C18 N1\\0,1\N,
 0,0.000022,-0.000126,-0.001279\C,0,0.411521,-1.356839,-0.000484\C,0,1.
 495533,-1.769287,0.781179\C,0,-0.26032,-2.302689,-0.781717\C,0,1.90121
 8,-3.097977,0.77159\C,0,0.140608,-3.632811,-0.770872\C,0,1.225282,-4.0
 3895,0.000666\H,0,2.020108,-1.039002,1.394849\H,0,-1.101816,-1.987296,
 -1.396157\H,0,2.748094,-3.402056,1.385878\H,0,-0.394485,-4.35669,-1.38

 Normal termination of Gaussian 16 at Sun Jan 17 19:56:36 2021.
