 Gaussian 16, Revision A.03,
 Gaussian 16:  EM64L-G16RevA.03 25-Dec-2016

 ----------------------------------------------------------------------
 #P LC-wHPBE/TZVP iop(3/107=0182100000, 3/108=0182100000) scf=(conver=6
 ,fermi,ndamp=35,noincfock,novaracc,vshift=500,xqc)
 ----------------------------------------------------------------------

 ----------
 H15 C18 N1
 ----------
 Symbolic Z-matrix:
 Charge =  1 Multiplicity = 2

                         Standard orientation:
 ---------------------------------------------------------------------
 Center     Atomic      Atomic             Coordinates (Angstroms)
 Number     Number       Type             X           Y           Z
 ---------------------------------------------------------------------
      1          7           0       -0.000022    0.000126   -0.001279
      2          6           0       -0.411410    1.356873   -0.000484
      3          6           0       -1.495388    1.769410    0.781179
      4          6           0        0.260509    2.302668   -0.781717
      5          6           0       -1.900964    3.098133    0.771590
      6          6           0       -0.140310    3.632823   -0.770872
      7          6           0       -1.224951    4.039050    0.000666
      8          1           0       -2.020023    1.039168    1.394849
      9          1           0        1.101979    1.987206   -1.396157
     10          1           0       -2.747815    3.402281    1.385878
     11          1           0        0.394842    4.356658   -1.384611
     12          1           0       -1.541008    5.080966    0.001027
     13          6           0       -0.969209   -1.034631   -0.000488
     14          6           0       -2.123113   -0.926761   -0.783450
     15          6           0       -0.785513   -2.178628    0.782922
     16          6           0       -3.074603   -1.938977   -0.772694
     17          6           0       -1.733510   -3.194160    0.773528
     18          6           0       -2.885344   -3.080217    0.000886
     19          1           0       -2.269925   -0.041128   -1.399284
     20          1           0        0.108384   -2.266911    1.398014
     21          1           0       -3.968013   -1.838326   -1.388087
     22          1           0       -1.574421   -4.078745    1.389358
     23          1           0       -3.629741   -3.874779    0.001646
     24          6           0        1.380705   -0.322058   -0.000436
     25          6           0        2.279720    0.408815    0.782988
     26          6           0        1.863904   -1.375397   -0.783483
     27          6           0        3.633193    0.095502    0.773256
     28          6           0        3.216226   -1.693556   -0.772877
     29          6           0        4.110133   -0.958995    0.000466
     30          1           0        1.909375    1.227058    1.398174
     31          1           0        1.170022   -1.945208   -1.399095
     32          1           0        4.319906    0.675407    1.389003
     33          1           0        3.575681   -2.517564   -1.388348
     34          1           0        5.170466   -1.206335    0.000686
 ---------------------------------------------------------------------

 SCF Done:  E(ULC-wHPBE) =  -748.950982339     A.U. after   16 cycles

 The electronic state is 2-A.
 Alpha  occ. eigenvalues --  -14.33654 -10.18754 -10.18750 -10.18749 -10.14107
 Alpha  occ. eigenvalues --  -10.14106 -10.14105 -10.14105 -10.14104 -10.14103
 Alpha  occ. eigenvalues --  -10.13250 -10.13247 -10.13246 -10.12913 -10.12911
 Alpha  occ. eigenvalues --  -10.12911 -10.12910 -10.12908 -10.12908  -1.17913
 Alpha  occ. eigenvalues --   -1.04015  -1.04014  -1.01920  -0.94771  -0.94770
 Alpha  occ. eigenvalues --   -0.92554  -0.92504  -0.92503  -0.89669  -0.82469
 Alpha  occ. eigenvalues --   -0.82468  -0.79597  -0.78794  -0.78793  -0.75970
 Alpha  occ. eigenvalues --   -0.73416  -0.73414  -0.69437  -0.67486  -0.67486
 Alpha  occ. eigenvalues --   -0.67454  -0.64389  -0.64389  -0.62640  -0.62464
 Alpha  occ. eigenvalues --   -0.62461  -0.61514  -0.61068  -0.61066  -0.59098
 Alpha  occ. eigenvalues --   -0.58094  -0.58093  -0.55811  -0.55089  -0.54794
 Alpha  occ. eigenvalues --   -0.54794  -0.53260  -0.53259  -0.52229  -0.47347
 Alpha  occ. eigenvalues --   -0.47346  -0.46913  -0.45692  -0.45690  -0.41512
 Alpha virt. eigenvalues --   -0.11864  -0.11862  -0.11600  -0.09383  -0.09382
 Alpha virt. eigenvalues --   -0.07467  -0.02141  -0.00540  -0.00540   0.01397
 Alpha virt. eigenvalues --    0.01400   0.01994   0.02155   0.03719   0.03720

  Beta  occ. eigenvalues --  -14.32789 -10.18797 -10.18793 -10.18791 -10.13961
  Beta  occ. eigenvalues --  -10.13960 -10.13959 -10.13959 -10.13957 -10.13957
  Beta  occ. eigenvalues --  -10.13082 -10.13080 -10.13079 -10.12974 -10.12972
  Beta  occ. eigenvalues --  -10.12972 -10.12967 -10.12964 -10.12964  -1.16792
  Beta  occ. eigenvalues --   -1.03794  -1.03792  -1.01607  -0.94551  -0.94550
  Beta  occ. eigenvalues --   -0.92397  -0.92342  -0.92342  -0.89092  -0.82191
  Beta  occ. eigenvalues --   -0.82191  -0.79317  -0.78649  -0.78648  -0.75796
  Beta  occ. eigenvalues --   -0.73248  -0.73245  -0.69260  -0.67290  -0.67289
  Beta  occ. eigenvalues --   -0.66586  -0.64283  -0.64283  -0.62559  -0.62309
  Beta  occ. eigenvalues --   -0.62306  -0.61387  -0.60991  -0.60989  -0.58404
  Beta  occ. eigenvalues --   -0.57618  -0.57618  -0.55692  -0.54685  -0.54684
  Beta  occ. eigenvalues --   -0.54175  -0.53150  -0.53149  -0.51137  -0.46521
  Beta  occ. eigenvalues --   -0.46210  -0.46209  -0.45112  -0.45110
  Beta virt. eigenvalues --   -0.25155  -0.11336  -0.11155  -0.11154  -0.08908
  Beta virt. eigenvalues --   -0.08908  -0.06307  -0.02037  -0.00465  -0.00464
  Beta virt. eigenvalues --    0.01462   0.01464   0.02090   0.02198   0.03782

 Mulliken charges and spin densities:
               1          2
     1  N    0.097323   0.387831
     2  C   -0.080396  -0.014707
     3  C   -0.087027   0.103826
     4  C   -0.087171   0.103871
     5  C   -0.104980  -0.060647
     6  C   -0.104901  -0.060674
     7  C   -0.061084   0.142541
     8  H    0.183923  -0.004381
     9  H    0.183875  -0.004382
    10  H    0.151912   0.002998
    11  H    0.151917   0.002997
    12  H    0.155235  -0.007034
    13  C   -0.081567  -0.014679
    14  C   -0.086911   0.103631
    15  C   -0.086394   0.103589
    16  C   -0.104944  -0.060538
    17  C   -0.105026  -0.060497
    18  C   -0.061032   0.142188
    19  H    0.183786  -0.004375
    20  H    0.183752  -0.004372
    21  H    0.151894   0.002995
    22  H    0.151897   0.002994
    23  H    0.155227  -0.007017
    24  C   -0.081539  -0.014686
    25  C   -0.086712   0.103573
    26  C   -0.086583   0.103598
    27  C   -0.105022  -0.060490
    28  C   -0.104947  -0.060512
    29  C   -0.061046   0.142133
    30  H    0.183812  -0.004371
    31  H    0.183708  -0.004373
    32  H    0.151901   0.002992
    33  H    0.151905   0.002993
    34  H    0.155219  -0.007015
 Sum of Mulliken charges =   1.00000   1.00000

 Dipole moment (field-independent basis, Debye):
    X=             -0.0011    Y=              0.0023    Z=              0.0006  Tot=              0.0026
 Quadrupole moment (field-independent basis, Debye-Ang):
   XX=            -67.6684   YY=            -67.6750   ZZ=           -102.9994
   XY=              0.0019   XZ=              0.0005   YZ=             -0.0003

 Normal termination of Gaussian 16 at Sun Jan 17 20:51:10 2021.
