 Gaussian 16, Revision A.03,
 Gaussian 16:  EM64L-G16RevA.03 25-Dec-2016

 ----------------------------------------------------------------------
 #P LC-wHPBE/TZVP iop(3/107=0221900000, 3/108=0221900000) scf=(conver=6
 ,fermi,ndamp=35,noincfock,novaracc,vshift=500,xqc)
 ----------------------------------------------------------------------

 ----------
 H15 C18 N1
 ----------
 Symbolic Z-matrix:
 Charge =  0 Multiplicity = 1

                         Standard orientation:
 ---------------------------------------------------------------------
 Center     Atomic      Atomic             Coordinates (Angstroms)
 Number     Number       Type             X           Y           Z
 ---------------------------------------------------------------------
      1          7           0       -0.000022    0.000126   -0.001279
      2          6           0       -0.411410    1.356873   -0.000484
      3          6           0       -1.495388    1.769410    0.781179
      4          6           0        0.260509    2.302668   -0.781717
      5          6           0       -1.900964    3.098133    0.771590
      6          6           0       -0.140310    3.632823   -0.770872
      7          6           0       -1.224951    4.039050    0.000666
      8          1           0       -2.020023    1.039168    1.394849
      9          1           0        1.101979    1.987206   -1.396157
     10          1           0       -2.747815    3.402281    1.385878
     11          1           0        0.394842    4.356658   -1.384611
     12          1           0       -1.541008    5.080966    0.001027
     13          6           0       -0.969209   -1.034631   -0.000488
     14          6           0       -2.123113   -0.926761   -0.783450
     15          6           0       -0.785513   -2.178628    0.782922
     16          6           0       -3.074603   -1.938977   -0.772694
     17          6           0       -1.733510   -3.194160    0.773528
     18          6           0       -2.885344   -3.080217    0.000886
     19          1           0       -2.269925   -0.041128   -1.399284
     20          1           0        0.108384   -2.266911    1.398014
     21          1           0       -3.968013   -1.838326   -1.388087
     22          1           0       -1.574421   -4.078745    1.389358
     23          1           0       -3.629741   -3.874779    0.001646
     24          6           0        1.380705   -0.322058   -0.000436
     25          6           0        2.279720    0.408815    0.782988
     26          6           0        1.863904   -1.375397   -0.783483
     27          6           0        3.633193    0.095502    0.773256
     28          6           0        3.216226   -1.693556   -0.772877
     29          6           0        4.110133   -0.958995    0.000466
     30          1           0        1.909375    1.227058    1.398174
     31          1           0        1.170022   -1.945208   -1.399095
     32          1           0        4.319906    0.675407    1.389003
     33          1           0        3.575681   -2.517564   -1.388348
     34          1           0        5.170466   -1.206335    0.000686
 ---------------------------------------------------------------------

 SCF Done:  E(RLC-wHPBE) =  -749.240146687     A.U. after   14 cycles

 The electronic state is 1-A.
 Alpha  occ. eigenvalues --  -14.14321 -10.05479 -10.05479 -10.05477 -10.01423
 Alpha  occ. eigenvalues --  -10.01422 -10.01422 -10.01422 -10.01419 -10.01419
 Alpha  occ. eigenvalues --  -10.01124 -10.01124 -10.01123 -10.01122 -10.01120
 Alpha  occ. eigenvalues --  -10.01119 -10.00946 -10.00946 -10.00941  -1.01890
 Alpha  occ. eigenvalues --   -0.91481  -0.91479  -0.89478  -0.81977  -0.81976
 Alpha  occ. eigenvalues --   -0.80463  -0.80342  -0.80340  -0.76804  -0.69349
 Alpha  occ. eigenvalues --   -0.69347  -0.66994  -0.66421  -0.66419  -0.63699
 Alpha  occ. eigenvalues --   -0.60598  -0.60598  -0.57232  -0.54783  -0.54780
 Alpha  occ. eigenvalues --   -0.53614  -0.51842  -0.51841  -0.50705  -0.49847
 Alpha  occ. eigenvalues --   -0.49846  -0.49091  -0.48779  -0.48778  -0.45515
 Alpha  occ. eigenvalues --   -0.45244  -0.45242  -0.43589  -0.42339  -0.42337
 Alpha  occ. eigenvalues --   -0.41888  -0.40715  -0.40713  -0.38406  -0.33877
 Alpha  occ. eigenvalues --   -0.33875  -0.33836  -0.32602  -0.32601  -0.25556
 Alpha virt. eigenvalues --    0.03216   0.03568   0.03569   0.05698   0.05701
 Alpha virt. eigenvalues --    0.08465   0.11174   0.12123   0.12125   0.14511
 Alpha virt. eigenvalues --    0.14513   0.14646   0.15035   0.16232   0.16233

 Mulliken charges:
               1
     1  N   -0.018905
     2  C   -0.059069
     3  C   -0.115049
     4  C   -0.115179
     5  C   -0.115631
     6  C   -0.115538
     7  C   -0.106912
     8  H    0.154571
     9  H    0.154482
    10  H    0.108637
    11  H    0.108642
    12  H    0.107474
    13  C   -0.060192
    14  C   -0.114816
    15  C   -0.114376
    16  C   -0.115558
    17  C   -0.115662
    18  C   -0.106801
    19  H    0.154409
    20  H    0.154408
    21  H    0.108647
    22  H    0.108648
    23  H    0.107502
    24  C   -0.060183
    25  C   -0.114625
    26  C   -0.114520
    27  C   -0.115672
    28  C   -0.115588
    29  C   -0.106783
    30  H    0.154477
    31  H    0.154348
    32  H    0.108658
    33  H    0.108658
    34  H    0.107498
 Sum of Mulliken charges =  -0.00000

 Dipole moment (field-independent basis, Debye):
    X=              0.0011    Y=             -0.0028    Z=              0.0006  Tot=              0.0031
 Quadrupole moment (field-independent basis, Debye-Ang):
   XX=           -103.3170   YY=           -103.3412   ZZ=           -111.1131
   XY=              0.0068   XZ=              0.0020   YZ=              0.0004

 1\1\GINC-CASCADEB040\SP\RLC-wHPBE\TZVP\C18H15N1\RDU230\17-Jan-2021\0\\
 #P LC-wHPBE/TZVP iop(3/107=0221900000, 3/108=0221900000) scf=(conver=6
 ,fermi,ndamp=35,noincfock,novaracc,vshift=500,xqc)\\H15 C18 N1\\0,1\N,
 0,0.000022,-0.000126,-0.001279\C,0,0.411521,-1.356839,-0.000484\C,0,1.
 495533,-1.769287,0.781179\C,0,-0.26032,-2.302689,-0.781717\C,0,1.90121
 8,-3.097977,0.77159\C,0,0.140608,-3.632811,-0.770872\C,0,1.225282,-4.0
 3895,0.000666\H,0,2.020108,-1.039002,1.394849\H,0,-1.101816,-1.987296,
 -1.396157\H,0,2.748094,-3.402056,1.385878\H,0,-0.394485,-4.35669,-1.38

 Normal termination of Gaussian 16 at Sun Jan 17 19:44:27 2021.
