 Gaussian 16, Revision A.03,
 Gaussian 16:  EM64L-G16RevA.03 25-Dec-2016

 ----------------------------------------------------------------------
 #P LC-wHPBE/TZVP iop(3/107=0199100000, 3/108=0199100000) scf=(conver=6
 ,fermi,ndamp=35,noincfock,novaracc,vshift=500,xqc)
 ----------------------------------------------------------------------

 ----------
 H15 C18 N1
 ----------
 Symbolic Z-matrix:
 Charge =  0 Multiplicity = 1

                         Standard orientation:
 ---------------------------------------------------------------------
 Center     Atomic      Atomic             Coordinates (Angstroms)
 Number     Number       Type             X           Y           Z
 ---------------------------------------------------------------------
      1          7           0       -0.000022    0.000126   -0.001279
      2          6           0       -0.411410    1.356873   -0.000484
      3          6           0       -1.495388    1.769410    0.781179
      4          6           0        0.260509    2.302668   -0.781717
      5          6           0       -1.900964    3.098133    0.771590
      6          6           0       -0.140310    3.632823   -0.770872
      7          6           0       -1.224951    4.039050    0.000666
      8          1           0       -2.020023    1.039168    1.394849
      9          1           0        1.101979    1.987206   -1.396157
     10          1           0       -2.747815    3.402281    1.385878
     11          1           0        0.394842    4.356658   -1.384611
     12          1           0       -1.541008    5.080966    0.001027
     13          6           0       -0.969209   -1.034631   -0.000488
     14          6           0       -2.123113   -0.926761   -0.783450
     15          6           0       -0.785513   -2.178628    0.782922
     16          6           0       -3.074603   -1.938977   -0.772694
     17          6           0       -1.733510   -3.194160    0.773528
     18          6           0       -2.885344   -3.080217    0.000886
     19          1           0       -2.269925   -0.041128   -1.399284
     20          1           0        0.108384   -2.266911    1.398014
     21          1           0       -3.968013   -1.838326   -1.388087
     22          1           0       -1.574421   -4.078745    1.389358
     23          1           0       -3.629741   -3.874779    0.001646
     24          6           0        1.380705   -0.322058   -0.000436
     25          6           0        2.279720    0.408815    0.782988
     26          6           0        1.863904   -1.375397   -0.783483
     27          6           0        3.633193    0.095502    0.773256
     28          6           0        3.216226   -1.693556   -0.772877
     29          6           0        4.110133   -0.958995    0.000466
     30          1           0        1.909375    1.227058    1.398174
     31          1           0        1.170022   -1.945208   -1.399095
     32          1           0        4.319906    0.675407    1.389003
     33          1           0        3.575681   -2.517564   -1.388348
     34          1           0        5.170466   -1.206335    0.000686
 ---------------------------------------------------------------------

 SCF Done:  E(RLC-wHPBE) =  -749.217387332     A.U. after   14 cycles

 The electronic state is 1-A.
 Alpha  occ. eigenvalues --  -14.13137 -10.04179 -10.04178 -10.04176 -10.00136
 Alpha  occ. eigenvalues --  -10.00136 -10.00136 -10.00135 -10.00133 -10.00133
 Alpha  occ. eigenvalues --   -9.99849  -9.99848  -9.99847  -9.99847  -9.99844
 Alpha  occ. eigenvalues --   -9.99843  -9.99665  -9.99664  -9.99660  -1.00567
 Alpha  occ. eigenvalues --   -0.90124  -0.90122  -0.88139  -0.80692  -0.80691
 Alpha  occ. eigenvalues --   -0.79180  -0.79063  -0.79062  -0.75570  -0.68194
 Alpha  occ. eigenvalues --   -0.68192  -0.65841  -0.65280  -0.65278  -0.62587
 Alpha  occ. eigenvalues --   -0.59524  -0.59523  -0.56174  -0.53778  -0.53775
 Alpha  occ. eigenvalues --   -0.52593  -0.50857  -0.50856  -0.49730  -0.48895
 Alpha  occ. eigenvalues --   -0.48894  -0.48128  -0.47830  -0.47829  -0.44528
 Alpha  occ. eigenvalues --   -0.44243  -0.44241  -0.42714  -0.41483  -0.41480
 Alpha  occ. eigenvalues --   -0.41015  -0.39878  -0.39875  -0.37570  -0.33213
 Alpha  occ. eigenvalues --   -0.33211  -0.33169  -0.31952  -0.31950  -0.25017
 Alpha virt. eigenvalues --    0.02728   0.03083   0.03085   0.05162   0.05164
 Alpha virt. eigenvalues --    0.07915   0.10672   0.11622   0.11623   0.14027
 Alpha virt. eigenvalues --    0.14028   0.14187   0.14549   0.15747   0.15748

 Mulliken charges:
               1
     1  N   -0.011201
     2  C   -0.059691
     3  C   -0.112647
     4  C   -0.112784
     5  C   -0.113454
     6  C   -0.113360
     7  C   -0.103278
     8  H    0.151216
     9  H    0.151127
    10  H    0.105986
    11  H    0.105990
    12  H    0.104756
    13  C   -0.060812
    14  C   -0.112426
    15  C   -0.111975
    16  C   -0.113378
    17  C   -0.113481
    18  C   -0.103170
    19  H    0.151054
    20  H    0.151053
    21  H    0.105995
    22  H    0.105996
    23  H    0.104785
    24  C   -0.060808
    25  C   -0.112229
    26  C   -0.112122
    27  C   -0.113493
    28  C   -0.113407
    29  C   -0.103153
    30  H    0.151122
    31  H    0.150994
    32  H    0.106006
    33  H    0.106007
    34  H    0.104781
 Sum of Mulliken charges =  -0.00000

 Dipole moment (field-independent basis, Debye):
    X=              0.0012    Y=             -0.0028    Z=              0.0006  Tot=              0.0031
 Quadrupole moment (field-independent basis, Debye-Ang):
   XX=           -103.4689   YY=           -103.4930   ZZ=           -111.1971
   XY=              0.0068   XZ=              0.0020   YZ=              0.0004

 1\1\GINC-CASCADEB040\SP\RLC-wHPBE\TZVP\C18H15N1\RDU230\17-Jan-2021\0\\
 #P LC-wHPBE/TZVP iop(3/107=0199100000, 3/108=0199100000) scf=(conver=6
 ,fermi,ndamp=35,noincfock,novaracc,vshift=500,xqc)\\H15 C18 N1\\0,1\N,
 0,0.000022,-0.000126,-0.001279\C,0,0.411521,-1.356839,-0.000484\C,0,1.
 495533,-1.769287,0.781179\C,0,-0.26032,-2.302689,-0.781717\C,0,1.90121
 8,-3.097977,0.77159\C,0,0.140608,-3.632811,-0.770872\C,0,1.225282,-4.0
 3895,0.000666\H,0,2.020108,-1.039002,1.394849\H,0,-1.101816,-1.987296,
 -1.396157\H,0,2.748094,-3.402056,1.385878\H,0,-0.394485,-4.35669,-1.38

 Normal termination of Gaussian 16 at Sun Jan 17 20:55:52 2021.
