 Gaussian 16, Revision A.03,
 Gaussian 16:  EM64L-G16RevA.03 25-Dec-2016

 ----------------------------------------------------------------------
 #P LC-wHPBE/TZVP iop(3/107=0199100000, 3/108=0199100000) scf=(conver=6
 ,fermi,ndamp=35,noincfock,novaracc,vshift=500,xqc)
 ----------------------------------------------------------------------

 ----------
 H15 C18 N1
 ----------
 Symbolic Z-matrix:
 Charge =  1 Multiplicity = 2

                         Standard orientation:
 ---------------------------------------------------------------------
 Center     Atomic      Atomic             Coordinates (Angstroms)
 Number     Number       Type             X           Y           Z
 ---------------------------------------------------------------------
      1          7           0       -0.000022    0.000126   -0.001279
      2          6           0       -0.411410    1.356873   -0.000484
      3          6           0       -1.495388    1.769410    0.781179
      4          6           0        0.260509    2.302668   -0.781717
      5          6           0       -1.900964    3.098133    0.771590
      6          6           0       -0.140310    3.632823   -0.770872
      7          6           0       -1.224951    4.039050    0.000666
      8          1           0       -2.020023    1.039168    1.394849
      9          1           0        1.101979    1.987206   -1.396157
     10          1           0       -2.747815    3.402281    1.385878
     11          1           0        0.394842    4.356658   -1.384611
     12          1           0       -1.541008    5.080966    0.001027
     13          6           0       -0.969209   -1.034631   -0.000488
     14          6           0       -2.123113   -0.926761   -0.783450
     15          6           0       -0.785513   -2.178628    0.782922
     16          6           0       -3.074603   -1.938977   -0.772694
     17          6           0       -1.733510   -3.194160    0.773528
     18          6           0       -2.885344   -3.080217    0.000886
     19          1           0       -2.269925   -0.041128   -1.399284
     20          1           0        0.108384   -2.266911    1.398014
     21          1           0       -3.968013   -1.838326   -1.388087
     22          1           0       -1.574421   -4.078745    1.389358
     23          1           0       -3.629741   -3.874779    0.001646
     24          6           0        1.380705   -0.322058   -0.000436
     25          6           0        2.279720    0.408815    0.782988
     26          6           0        1.863904   -1.375397   -0.783483
     27          6           0        3.633193    0.095502    0.773256
     28          6           0        3.216226   -1.693556   -0.772877
     29          6           0        4.110133   -0.958995    0.000466
     30          1           0        1.909375    1.227058    1.398174
     31          1           0        1.170022   -1.945208   -1.399095
     32          1           0        4.319906    0.675407    1.389003
     33          1           0        3.575681   -2.517564   -1.388348
     34          1           0        5.170466   -1.206335    0.000686
 ---------------------------------------------------------------------

 SCF Done:  E(ULC-wHPBE) =  -748.967586210     A.U. after   16 cycles

 The electronic state is 2-A.
 Alpha  occ. eigenvalues --  -14.34729 -10.19728 -10.19724 -10.19722 -10.15086
 Alpha  occ. eigenvalues --  -10.15084 -10.15083 -10.15083 -10.15082 -10.15081
 Alpha  occ. eigenvalues --  -10.14211 -10.14208 -10.14208 -10.13863 -10.13861
 Alpha  occ. eigenvalues --  -10.13860 -10.13860 -10.13857 -10.13857  -1.18992
 Alpha  occ. eigenvalues --   -1.05041  -1.05040  -1.02937  -0.95756  -0.95755
 Alpha  occ. eigenvalues --   -0.93531  -0.93478  -0.93477  -0.90628  -0.83377
 Alpha  occ. eigenvalues --   -0.83377  -0.80498  -0.79680  -0.79679  -0.76835
 Alpha  occ. eigenvalues --   -0.74268  -0.74266  -0.70275  -0.68302  -0.68295
 Alpha  occ. eigenvalues --   -0.68295  -0.65163  -0.65163  -0.63408  -0.63232
 Alpha  occ. eigenvalues --   -0.63229  -0.62285  -0.61822  -0.61820  -0.59880
 Alpha  occ. eigenvalues --   -0.58894  -0.58892  -0.56511  -0.55839  -0.55484
 Alpha  occ. eigenvalues --   -0.55483  -0.53933  -0.53933  -0.52922  -0.47905
 Alpha  occ. eigenvalues --   -0.47904  -0.47473  -0.46234  -0.46233  -0.42044
 Alpha virt. eigenvalues --   -0.11450  -0.11448  -0.11172  -0.08924  -0.08922
 Alpha virt. eigenvalues --   -0.07006  -0.01718  -0.00104  -0.00103   0.01820
 Alpha virt. eigenvalues --    0.01823   0.02410   0.02579   0.04141   0.04142

  Beta  occ. eigenvalues --  -14.33843 -10.19778 -10.19774 -10.19772 -10.14935
  Beta  occ. eigenvalues --  -10.14933 -10.14932 -10.14932 -10.14931 -10.14930
  Beta  occ. eigenvalues --  -10.14040 -10.14038 -10.14037 -10.13929 -10.13926
  Beta  occ. eigenvalues --  -10.13926 -10.13921 -10.13919 -10.13919  -1.17848
  Beta  occ. eigenvalues --   -1.04819  -1.04818  -1.02617  -0.95536  -0.95536
  Beta  occ. eigenvalues --   -0.93372  -0.93316  -0.93315  -0.90027  -0.83094
  Beta  occ. eigenvalues --   -0.83093  -0.80213  -0.79535  -0.79534  -0.76659
  Beta  occ. eigenvalues --   -0.74099  -0.74097  -0.70093  -0.68094  -0.68093
  Beta  occ. eigenvalues --   -0.67388  -0.65057  -0.65056  -0.63327  -0.63070
  Beta  occ. eigenvalues --   -0.63068  -0.62154  -0.61741  -0.61739  -0.59179
  Beta  occ. eigenvalues --   -0.58389  -0.58388  -0.56390  -0.55373  -0.55372
  Beta  occ. eigenvalues --   -0.54839  -0.53821  -0.53820  -0.51743  -0.47068
  Beta  occ. eigenvalues --   -0.46713  -0.46712  -0.45608  -0.45607
  Beta virt. eigenvalues --   -0.24914  -0.10905  -0.10724  -0.10723  -0.08422
  Beta virt. eigenvalues --   -0.08422  -0.05757  -0.01615  -0.00029  -0.00028
  Beta virt. eigenvalues --    0.01885   0.01887   0.02501   0.02621   0.04204

 Mulliken charges and spin densities:
               1          2
     1  N    0.096409   0.397840
     2  C   -0.081106  -0.020467
     3  C   -0.087883   0.108015
     4  C   -0.088021   0.108060
     5  C   -0.107125  -0.065374
     6  C   -0.107046  -0.065401
     7  C   -0.062580   0.146110
     8  H    0.186045  -0.004531
     9  H    0.185996  -0.004533
    10  H    0.153322   0.003180
    11  H    0.153327   0.003179
    12  H    0.156680  -0.007165
    13  C   -0.082278  -0.020433
    14  C   -0.087759   0.107809
    15  C   -0.087249   0.107768
    16  C   -0.107089  -0.065253
    17  C   -0.107172  -0.065212
    18  C   -0.062529   0.145744
    19  H    0.185906  -0.004525
    20  H    0.185873  -0.004522
    21  H    0.153304   0.003177
    22  H    0.153307   0.003175
    23  H    0.156671  -0.007147
    24  C   -0.082245  -0.020439
    25  C   -0.087566   0.107748
    26  C   -0.087436   0.107775
    27  C   -0.107167  -0.065203
    28  C   -0.107092  -0.065224
    29  C   -0.062542   0.145687
    30  H    0.185933  -0.004520
    31  H    0.185827  -0.004523
    32  H    0.153310   0.003174
    33  H    0.153315   0.003174
    34  H    0.156663  -0.007145
 Sum of Mulliken charges =   1.00000   1.00000

 Dipole moment (field-independent basis, Debye):
    X=             -0.0011    Y=              0.0024    Z=              0.0006  Tot=              0.0027
 Quadrupole moment (field-independent basis, Debye-Ang):
   XX=            -67.6485   YY=            -67.6549   ZZ=           -102.9539
   XY=              0.0019   XZ=              0.0005   YZ=             -0.0003

 Normal termination of Gaussian 16 at Sun Jan 17 21:02:50 2021.
