 Gaussian 16, Revision A.03,
 Gaussian 16:  EM64L-G16RevA.03 25-Dec-2016

 ----------------------------------------------------------------------
 #P LC-wHPBE/TZVP iop(3/107=0196600000, 3/108=0196600000) scf=(conver=6
 ,fermi,ndamp=35,noincfock,novaracc,vshift=500,xqc)
 ----------------------------------------------------------------------

 ----------
 H15 C18 N1
 ----------
 Symbolic Z-matrix:
 Charge =  0 Multiplicity = 1

                         Standard orientation:
 ---------------------------------------------------------------------
 Center     Atomic      Atomic             Coordinates (Angstroms)
 Number     Number       Type             X           Y           Z
 ---------------------------------------------------------------------
      1          7           0       -0.000022    0.000126   -0.001279
      2          6           0       -0.411410    1.356873   -0.000484
      3          6           0       -1.495388    1.769410    0.781179
      4          6           0        0.260509    2.302668   -0.781717
      5          6           0       -1.900964    3.098133    0.771590
      6          6           0       -0.140310    3.632823   -0.770872
      7          6           0       -1.224951    4.039050    0.000666
      8          1           0       -2.020023    1.039168    1.394849
      9          1           0        1.101979    1.987206   -1.396157
     10          1           0       -2.747815    3.402281    1.385878
     11          1           0        0.394842    4.356658   -1.384611
     12          1           0       -1.541008    5.080966    0.001027
     13          6           0       -0.969209   -1.034631   -0.000488
     14          6           0       -2.123113   -0.926761   -0.783450
     15          6           0       -0.785513   -2.178628    0.782922
     16          6           0       -3.074603   -1.938977   -0.772694
     17          6           0       -1.733510   -3.194160    0.773528
     18          6           0       -2.885344   -3.080217    0.000886
     19          1           0       -2.269925   -0.041128   -1.399284
     20          1           0        0.108384   -2.266911    1.398014
     21          1           0       -3.968013   -1.838326   -1.388087
     22          1           0       -1.574421   -4.078745    1.389358
     23          1           0       -3.629741   -3.874779    0.001646
     24          6           0        1.380705   -0.322058   -0.000436
     25          6           0        2.279720    0.408815    0.782988
     26          6           0        1.863904   -1.375397   -0.783483
     27          6           0        3.633193    0.095502    0.773256
     28          6           0        3.216226   -1.693556   -0.772877
     29          6           0        4.110133   -0.958995    0.000466
     30          1           0        1.909375    1.227058    1.398174
     31          1           0        1.170022   -1.945208   -1.399095
     32          1           0        4.319906    0.675407    1.389003
     33          1           0        3.575681   -2.517564   -1.388348
     34          1           0        5.170466   -1.206335    0.000686
 ---------------------------------------------------------------------

 SCF Done:  E(RLC-wHPBE) =  -749.214823069     A.U. after   14 cycles

 The electronic state is 1-A.
 Alpha  occ. eigenvalues --  -14.13007 -10.04036 -10.04036 -10.04034  -9.99995
 Alpha  occ. eigenvalues --   -9.99995  -9.99995  -9.99994  -9.99992  -9.99992
 Alpha  occ. eigenvalues --   -9.99709  -9.99708  -9.99707  -9.99707  -9.99705
 Alpha  occ. eigenvalues --   -9.99703  -9.99524  -9.99524  -9.99519  -1.00422
 Alpha  occ. eigenvalues --   -0.89975  -0.89973  -0.87992  -0.80550  -0.80549
 Alpha  occ. eigenvalues --   -0.79039  -0.78922  -0.78921  -0.75433  -0.68065
 Alpha  occ. eigenvalues --   -0.68063  -0.65712  -0.65152  -0.65151  -0.62463
 Alpha  occ. eigenvalues --   -0.59403  -0.59403  -0.56055  -0.53665  -0.53662
 Alpha  occ. eigenvalues --   -0.52478  -0.50746  -0.50745  -0.49620  -0.48787
 Alpha  occ. eigenvalues --   -0.48786  -0.48019  -0.47723  -0.47721  -0.44416
 Alpha  occ. eigenvalues --   -0.44129  -0.44128  -0.42614  -0.41386  -0.41383
 Alpha  occ. eigenvalues --   -0.40916  -0.39783  -0.39780  -0.37474  -0.33136
 Alpha  occ. eigenvalues --   -0.33134  -0.33091  -0.31876  -0.31874  -0.24954
 Alpha virt. eigenvalues --    0.02670   0.03025   0.03027   0.05098   0.05100
 Alpha virt. eigenvalues --    0.07850   0.10612   0.11562   0.11564   0.13968
 Alpha virt. eigenvalues --    0.13970   0.14131   0.14491   0.15689   0.15690

 Mulliken charges:
               1
     1  N   -0.010376
     2  C   -0.059793
     3  C   -0.112418
     4  C   -0.112556
     5  C   -0.113221
     6  C   -0.113128
     7  C   -0.102920
     8  H    0.150880
     9  H    0.150791
    10  H    0.105728
    11  H    0.105732
    12  H    0.104491
    13  C   -0.060914
    14  C   -0.112198
    15  C   -0.111745
    16  C   -0.113145
    17  C   -0.113248
    18  C   -0.102813
    19  H    0.150718
    20  H    0.150716
    21  H    0.105738
    22  H    0.105739
    23  H    0.104519
    24  C   -0.060910
    25  C   -0.112001
    26  C   -0.111894
    27  C   -0.113260
    28  C   -0.113174
    29  C   -0.102795
    30  H    0.150786
    31  H    0.150658
    32  H    0.105748
    33  H    0.105749
    34  H    0.104516
 Sum of Mulliken charges =  -0.00000

 Dipole moment (field-independent basis, Debye):
    X=              0.0012    Y=             -0.0028    Z=              0.0006  Tot=              0.0031
 Quadrupole moment (field-independent basis, Debye-Ang):
   XX=           -103.4853   YY=           -103.5094   ZZ=           -111.2064
   XY=              0.0068   XZ=              0.0020   YZ=              0.0004

 1\1\GINC-CASCADEB040\SP\RLC-wHPBE\TZVP\C18H15N1\RDU230\17-Jan-2021\0\\
 #P LC-wHPBE/TZVP iop(3/107=0196600000, 3/108=0196600000) scf=(conver=6
 ,fermi,ndamp=35,noincfock,novaracc,vshift=500,xqc)\\H15 C18 N1\\0,1\N,
 0,0.000022,-0.000126,-0.001279\C,0,0.411521,-1.356839,-0.000484\C,0,1.
 495533,-1.769287,0.781179\C,0,-0.26032,-2.302689,-0.781717\C,0,1.90121
 8,-3.097977,0.77159\C,0,0.140608,-3.632811,-0.770872\C,0,1.225282,-4.0
 3895,0.000666\H,0,2.020108,-1.039002,1.394849\H,0,-1.101816,-1.987296,
 -1.396157\H,0,2.748094,-3.402056,1.385878\H,0,-0.394485,-4.35669,-1.38

 Normal termination of Gaussian 16 at Sun Jan 17 21:18:55 2021.
