 Gaussian 16, Revision A.03,
 Gaussian 16:  EM64L-G16RevA.03 25-Dec-2016

 ----------------------------------------------------------------------
 #P LC-wHPBE/TZVP iop(3/107=0197300000, 3/108=0197300000) scf=(conver=6
 ,fermi,ndamp=35,noincfock,novaracc,vshift=500,xqc)
 ----------------------------------------------------------------------

 ----------
 H15 C18 N1
 ----------
 Symbolic Z-matrix:
 Charge =  1 Multiplicity = 2

                         Standard orientation:
 ---------------------------------------------------------------------
 Center     Atomic      Atomic             Coordinates (Angstroms)
 Number     Number       Type             X           Y           Z
 ---------------------------------------------------------------------
      1          7           0       -0.000022    0.000126   -0.001279
      2          6           0       -0.411410    1.356873   -0.000484
      3          6           0       -1.495388    1.769410    0.781179
      4          6           0        0.260509    2.302668   -0.781717
      5          6           0       -1.900964    3.098133    0.771590
      6          6           0       -0.140310    3.632823   -0.770872
      7          6           0       -1.224951    4.039050    0.000666
      8          1           0       -2.020023    1.039168    1.394849
      9          1           0        1.101979    1.987206   -1.396157
     10          1           0       -2.747815    3.402281    1.385878
     11          1           0        0.394842    4.356658   -1.384611
     12          1           0       -1.541008    5.080966    0.001027
     13          6           0       -0.969209   -1.034631   -0.000488
     14          6           0       -2.123113   -0.926761   -0.783450
     15          6           0       -0.785513   -2.178628    0.782922
     16          6           0       -3.074603   -1.938977   -0.772694
     17          6           0       -1.733510   -3.194160    0.773528
     18          6           0       -2.885344   -3.080217    0.000886
     19          1           0       -2.269925   -0.041128   -1.399284
     20          1           0        0.108384   -2.266911    1.398014
     21          1           0       -3.968013   -1.838326   -1.388087
     22          1           0       -1.574421   -4.078745    1.389358
     23          1           0       -3.629741   -3.874779    0.001646
     24          6           0        1.380705   -0.322058   -0.000436
     25          6           0        2.279720    0.408815    0.782988
     26          6           0        1.863904   -1.375397   -0.783483
     27          6           0        3.633193    0.095502    0.773256
     28          6           0        3.216226   -1.693556   -0.772877
     29          6           0        4.110133   -0.958995    0.000466
     30          1           0        1.909375    1.227058    1.398174
     31          1           0        1.170022   -1.945208   -1.399095
     32          1           0        4.319906    0.675407    1.389003
     33          1           0        3.575681   -2.517564   -1.388348
     34          1           0        5.170466   -1.206335    0.000686
 ---------------------------------------------------------------------

 SCF Done:  E(ULC-wHPBE) =  -748.965849913     A.U. after   16 cycles

 The electronic state is 2-A.
 Alpha  occ. eigenvalues --  -14.34615 -10.19625 -10.19621 -10.19619 -10.14982
 Alpha  occ. eigenvalues --  -10.14980 -10.14980 -10.14979 -10.14978 -10.14977
 Alpha  occ. eigenvalues --  -10.14110 -10.14106 -10.14106 -10.13762 -10.13760
 Alpha  occ. eigenvalues --  -10.13760 -10.13759 -10.13757 -10.13757  -1.18878
 Alpha  occ. eigenvalues --   -1.04933  -1.04931  -1.02829  -0.95652  -0.95651
 Alpha  occ. eigenvalues --   -0.93428  -0.93376  -0.93375  -0.90527  -0.83282
 Alpha  occ. eigenvalues --   -0.83281  -0.80403  -0.79587  -0.79586  -0.76745
 Alpha  occ. eigenvalues --   -0.74179  -0.74177  -0.70188  -0.68214  -0.68211
 Alpha  occ. eigenvalues --   -0.68210  -0.65082  -0.65082  -0.63328  -0.63152
 Alpha  occ. eigenvalues --   -0.63149  -0.62205  -0.61743  -0.61741  -0.59798
 Alpha  occ. eigenvalues --   -0.58811  -0.58809  -0.56439  -0.55761  -0.55412
 Alpha  occ. eigenvalues --   -0.55412  -0.53863  -0.53863  -0.52850  -0.47848
 Alpha  occ. eigenvalues --   -0.47847  -0.47416  -0.46179  -0.46178  -0.41989
 Alpha virt. eigenvalues --   -0.11492  -0.11490  -0.11215  -0.08970  -0.08969
 Alpha virt. eigenvalues --   -0.07053  -0.01761  -0.00148  -0.00147   0.01778
 Alpha virt. eigenvalues --    0.01780   0.02368   0.02537   0.04098   0.04099

  Beta  occ. eigenvalues --  -14.33731 -10.19674 -10.19670 -10.19668 -10.14832
  Beta  occ. eigenvalues --  -10.14830 -10.14829 -10.14829 -10.14828 -10.14827
  Beta  occ. eigenvalues --  -10.13939 -10.13936 -10.13935 -10.13828 -10.13825
  Beta  occ. eigenvalues --  -10.13825 -10.13820 -10.13818 -10.13818  -1.17736
  Beta  occ. eigenvalues --   -1.04710  -1.04709  -1.02510  -0.95432  -0.95432
  Beta  occ. eigenvalues --   -0.93269  -0.93213  -0.93212  -0.89928  -0.82999
  Beta  occ. eigenvalues --   -0.82999  -0.80119  -0.79442  -0.79441  -0.76569
  Beta  occ. eigenvalues --   -0.74010  -0.74008  -0.70006  -0.68010  -0.68009
  Beta  occ. eigenvalues --   -0.67305  -0.64976  -0.64976  -0.63247  -0.62991
  Beta  occ. eigenvalues --   -0.62989  -0.62074  -0.61663  -0.61661  -0.59099
  Beta  occ. eigenvalues --   -0.58309  -0.58308  -0.56318  -0.55301  -0.55301
  Beta  occ. eigenvalues --   -0.54770  -0.53751  -0.53751  -0.51681  -0.47012
  Beta  occ. eigenvalues --   -0.46662  -0.46660  -0.45558  -0.45556
  Beta virt. eigenvalues --   -0.24938  -0.10948  -0.10768  -0.10767  -0.08472
  Beta virt. eigenvalues --   -0.08471  -0.05813  -0.01657  -0.00073  -0.00072
  Beta virt. eigenvalues --    0.01842   0.01845   0.02460   0.02578   0.04161

 Mulliken charges and spin densities:
               1          2
     1  N    0.096517   0.396796
     2  C   -0.081014  -0.019843
     3  C   -0.087780   0.107556
     4  C   -0.087918   0.107601
     5  C   -0.106893  -0.064853
     6  C   -0.106814  -0.064879
     7  C   -0.062409   0.145702
     8  H    0.185807  -0.004515
     9  H    0.185758  -0.004516
    10  H    0.153159   0.003160
    11  H    0.153164   0.003159
    12  H    0.156513  -0.007150
    13  C   -0.082187  -0.019809
    14  C   -0.087657   0.107350
    15  C   -0.087146   0.107309
    16  C   -0.106857  -0.064733
    17  C   -0.106940  -0.064692
    18  C   -0.062357   0.145338
    19  H    0.185669  -0.004508
    20  H    0.185635  -0.004506
    21  H    0.153141   0.003157
    22  H    0.153144   0.003155
    23  H    0.156505  -0.007132
    24  C   -0.082154  -0.019815
    25  C   -0.087463   0.107290
    26  C   -0.087333   0.107317
    27  C   -0.106935  -0.064683
    28  C   -0.106860  -0.064704
    29  C   -0.062371   0.145280
    30  H    0.185695  -0.004504
    31  H    0.185589  -0.004506
    32  H    0.153147   0.003154
    33  H    0.153152   0.003154
    34  H    0.156496  -0.007130
 Sum of Mulliken charges =   1.00000   1.00000

 Dipole moment (field-independent basis, Debye):
    X=             -0.0011    Y=              0.0023    Z=              0.0006  Tot=              0.0027
 Quadrupole moment (field-independent basis, Debye-Ang):
   XX=            -67.6509   YY=            -67.6573   ZZ=           -102.9586
   XY=              0.0019   XZ=              0.0005   YZ=             -0.0003

 Normal termination of Gaussian 16 at Sun Jan 17 21:48:07 2021.
