 Gaussian 16, Revision A.03,
 Gaussian 16:  EM64L-G16RevA.03 25-Dec-2016

 ----------------------------------------------------------------------
 #P LC-wHPBE/TZVP iop(3/107=0198000000, 3/108=0198000000) scf=(conver=6
 ,fermi,ndamp=35,noincfock,novaracc,vshift=500,xqc)
 ----------------------------------------------------------------------

 ----------
 H15 C18 N1
 ----------
 Symbolic Z-matrix:
 Charge =  1 Multiplicity = 2

                         Standard orientation:
 ---------------------------------------------------------------------
 Center     Atomic      Atomic             Coordinates (Angstroms)
 Number     Number       Type             X           Y           Z
 ---------------------------------------------------------------------
      1          7           0       -0.000022    0.000126   -0.001279
      2          6           0       -0.411410    1.356873   -0.000484
      3          6           0       -1.495388    1.769410    0.781179
      4          6           0        0.260509    2.302668   -0.781717
      5          6           0       -1.900964    3.098133    0.771590
      6          6           0       -0.140310    3.632823   -0.770872
      7          6           0       -1.224951    4.039050    0.000666
      8          1           0       -2.020023    1.039168    1.394849
      9          1           0        1.101979    1.987206   -1.396157
     10          1           0       -2.747815    3.402281    1.385878
     11          1           0        0.394842    4.356658   -1.384611
     12          1           0       -1.541008    5.080966    0.001027
     13          6           0       -0.969209   -1.034631   -0.000488
     14          6           0       -2.123113   -0.926761   -0.783450
     15          6           0       -0.785513   -2.178628    0.782922
     16          6           0       -3.074603   -1.938977   -0.772694
     17          6           0       -1.733510   -3.194160    0.773528
     18          6           0       -2.885344   -3.080217    0.000886
     19          1           0       -2.269925   -0.041128   -1.399284
     20          1           0        0.108384   -2.266911    1.398014
     21          1           0       -3.968013   -1.838326   -1.388087
     22          1           0       -1.574421   -4.078745    1.389358
     23          1           0       -3.629741   -3.874779    0.001646
     24          6           0        1.380705   -0.322058   -0.000436
     25          6           0        2.279720    0.408815    0.782988
     26          6           0        1.863904   -1.375397   -0.783483
     27          6           0        3.633193    0.095502    0.773256
     28          6           0        3.216226   -1.693556   -0.772877
     29          6           0        4.110133   -0.958995    0.000466
     30          1           0        1.909375    1.227058    1.398174
     31          1           0        1.170022   -1.945208   -1.399095
     32          1           0        4.319906    0.675407    1.389003
     33          1           0        3.575681   -2.517564   -1.388348
     34          1           0        5.170466   -1.206335    0.000686
 ---------------------------------------------------------------------

 SCF Done:  E(ULC-wHPBE) =  -748.966525836     A.U. after   16 cycles

 The electronic state is 2-A.
 Alpha  occ. eigenvalues --  -14.34660 -10.19665 -10.19661 -10.19659 -10.15022
 Alpha  occ. eigenvalues --  -10.15021 -10.15020 -10.15020 -10.15018 -10.15018
 Alpha  occ. eigenvalues --  -10.14149 -10.14146 -10.14145 -10.13801 -10.13799
 Alpha  occ. eigenvalues --  -10.13799 -10.13798 -10.13796 -10.13796  -1.18923
 Alpha  occ. eigenvalues --   -1.04975  -1.04973  -1.02871  -0.95693  -0.95692
 Alpha  occ. eigenvalues --   -0.93468  -0.93416  -0.93415  -0.90567  -0.83319
 Alpha  occ. eigenvalues --   -0.83319  -0.80440  -0.79623  -0.79622  -0.76780
 Alpha  occ. eigenvalues --   -0.74214  -0.74212  -0.70222  -0.68248  -0.68244
 Alpha  occ. eigenvalues --   -0.68243  -0.65113  -0.65113  -0.63359  -0.63183
 Alpha  occ. eigenvalues --   -0.63180  -0.62236  -0.61774  -0.61772  -0.59830
 Alpha  occ. eigenvalues --   -0.58843  -0.58842  -0.56467  -0.55791  -0.55440
 Alpha  occ. eigenvalues --   -0.55439  -0.53891  -0.53890  -0.52878  -0.47870
 Alpha  occ. eigenvalues --   -0.47869  -0.47438  -0.46201  -0.46199  -0.42011
 Alpha virt. eigenvalues --   -0.11476  -0.11474  -0.11199  -0.08952  -0.08951
 Alpha virt. eigenvalues --   -0.07035  -0.01744  -0.00131  -0.00130   0.01794
 Alpha virt. eigenvalues --    0.01797   0.02384   0.02553   0.04115   0.04116

  Beta  occ. eigenvalues --  -14.33775 -10.19715 -10.19711 -10.19709 -10.14872
  Beta  occ. eigenvalues --  -10.14870 -10.14869 -10.14869 -10.14868 -10.14867
  Beta  occ. eigenvalues --  -10.13978 -10.13976 -10.13975 -10.13867 -10.13865
  Beta  occ. eigenvalues --  -10.13864 -10.13860 -10.13857 -10.13857  -1.17780
  Beta  occ. eigenvalues --   -1.04753  -1.04751  -1.02552  -0.95473  -0.95472
  Beta  occ. eigenvalues --   -0.93309  -0.93253  -0.93252  -0.89967  -0.83036
  Beta  occ. eigenvalues --   -0.83036  -0.80155  -0.79478  -0.79477  -0.76604
  Beta  occ. eigenvalues --   -0.74045  -0.74042  -0.70040  -0.68043  -0.68042
  Beta  occ. eigenvalues --   -0.67337  -0.65007  -0.65007  -0.63278  -0.63022
  Beta  occ. eigenvalues --   -0.63019  -0.62105  -0.61694  -0.61692  -0.59130
  Beta  occ. eigenvalues --   -0.58340  -0.58339  -0.56346  -0.55329  -0.55328
  Beta  occ. eigenvalues --   -0.54797  -0.53778  -0.53778  -0.51705  -0.47034
  Beta  occ. eigenvalues --   -0.46682  -0.46680  -0.45577  -0.45576
  Beta virt. eigenvalues --   -0.24929  -0.10932  -0.10751  -0.10750  -0.08452
  Beta virt. eigenvalues --   -0.08452  -0.05791  -0.01641  -0.00056  -0.00055
  Beta virt. eigenvalues --    0.01859   0.01861   0.02476   0.02595   0.04178

 Mulliken charges and spin densities:
               1          2
     1  N    0.096476   0.397202
     2  C   -0.081049  -0.020085
     3  C   -0.087819   0.107734
     4  C   -0.087958   0.107779
     5  C   -0.106983  -0.065055
     6  C   -0.106904  -0.065082
     7  C   -0.062475   0.145860
     8  H    0.185899  -0.004521
     9  H    0.185850  -0.004523
    10  H    0.153222   0.003168
    11  H    0.153227   0.003167
    12  H    0.156578  -0.007156
    13  C   -0.082222  -0.020051
    14  C   -0.087696   0.107528
    15  C   -0.087186   0.107487
    16  C   -0.106947  -0.064934
    17  C   -0.107031  -0.064894
    18  C   -0.062424   0.145495
    19  H    0.185761  -0.004515
    20  H    0.185727  -0.004512
    21  H    0.153204   0.003165
    22  H    0.153207   0.003163
    23  H    0.156569  -0.007138
    24  C   -0.082189  -0.020057
    25  C   -0.087503   0.107468
    26  C   -0.087372   0.107495
    27  C   -0.107025  -0.064885
    28  C   -0.106950  -0.064906
    29  C   -0.062437   0.145438
    30  H    0.185787  -0.004511
    31  H    0.185681  -0.004513
    32  H    0.153210   0.003162
    33  H    0.153215   0.003162
    34  H    0.156560  -0.007136
 Sum of Mulliken charges =   1.00000   1.00000

 Dipole moment (field-independent basis, Debye):
    X=             -0.0011    Y=              0.0024    Z=              0.0006  Tot=              0.0027
 Quadrupole moment (field-independent basis, Debye-Ang):
   XX=            -67.6500   YY=            -67.6564   ZZ=           -102.9568
   XY=              0.0019   XZ=              0.0005   YZ=             -0.0003

 Normal termination of Gaussian 16 at Sun Jan 17 20:39:30 2021.
