 Gaussian 16, Revision A.03,
 Gaussian 16:  EM64L-G16RevA.03 25-Dec-2016

 ----------------------------------------------------------------------
 #P LC-wHPBE/TZVP iop(3/107=0218600000, 3/108=0218600000) scf=(conver=6
 ,fermi,ndamp=35,noincfock,novaracc,vshift=500,xqc)
 ----------------------------------------------------------------------

 ----------
 H15 C18 N1
 ----------
 Symbolic Z-matrix:
 Charge =  1 Multiplicity = 2

                         Standard orientation:
 ---------------------------------------------------------------------
 Center     Atomic      Atomic             Coordinates (Angstroms)
 Number     Number       Type             X           Y           Z
 ---------------------------------------------------------------------
      1          7           0       -0.000022    0.000126   -0.001279
      2          6           0       -0.411410    1.356873   -0.000484
      3          6           0       -1.495388    1.769410    0.781179
      4          6           0        0.260509    2.302668   -0.781717
      5          6           0       -1.900964    3.098133    0.771590
      6          6           0       -0.140310    3.632823   -0.770872
      7          6           0       -1.224951    4.039050    0.000666
      8          1           0       -2.020023    1.039168    1.394849
      9          1           0        1.101979    1.987206   -1.396157
     10          1           0       -2.747815    3.402281    1.385878
     11          1           0        0.394842    4.356658   -1.384611
     12          1           0       -1.541008    5.080966    0.001027
     13          6           0       -0.969209   -1.034631   -0.000488
     14          6           0       -2.123113   -0.926761   -0.783450
     15          6           0       -0.785513   -2.178628    0.782922
     16          6           0       -3.074603   -1.938977   -0.772694
     17          6           0       -1.733510   -3.194160    0.773528
     18          6           0       -2.885344   -3.080217    0.000886
     19          1           0       -2.269925   -0.041128   -1.399284
     20          1           0        0.108384   -2.266911    1.398014
     21          1           0       -3.968013   -1.838326   -1.388087
     22          1           0       -1.574421   -4.078745    1.389358
     23          1           0       -3.629741   -3.874779    0.001646
     24          6           0        1.380705   -0.322058   -0.000436
     25          6           0        2.279720    0.408815    0.782988
     26          6           0        1.863904   -1.375397   -0.783483
     27          6           0        3.633193    0.095502    0.773256
     28          6           0        3.216226   -1.693556   -0.772877
     29          6           0        4.110133   -0.958995    0.000466
     30          1           0        1.909375    1.227058    1.398174
     31          1           0        1.170022   -1.945208   -1.399095
     32          1           0        4.319906    0.675407    1.389003
     33          1           0        3.575681   -2.517564   -1.388348
     34          1           0        5.170466   -1.206335    0.000686
 ---------------------------------------------------------------------

 SCF Done:  E(ULC-wHPBE) =  -748.985968658     A.U. after   17 cycles

 The electronic state is 2-A.
 Alpha  occ. eigenvalues --  -14.35955 -10.20846 -10.20842 -10.20840 -10.16207
 Alpha  occ. eigenvalues --  -10.16205 -10.16204 -10.16204 -10.16202 -10.16202
 Alpha  occ. eigenvalues --  -10.15316 -10.15312 -10.15312 -10.14951 -10.14949
 Alpha  occ. eigenvalues --  -10.14949 -10.14948 -10.14946 -10.14946  -1.20228
 Alpha  occ. eigenvalues --   -1.06216  -1.06215  -1.04100  -0.96875  -0.96874
 Alpha  occ. eigenvalues --   -0.94639  -0.94584  -0.94583  -0.91714  -0.84395
 Alpha  occ. eigenvalues --   -0.84395  -0.81508  -0.80671  -0.80670  -0.77798
 Alpha  occ. eigenvalues --   -0.75213  -0.75210  -0.71203  -0.69243  -0.69188
 Alpha  occ. eigenvalues --   -0.69188  -0.66014  -0.66014  -0.64253  -0.64077
 Alpha  occ. eigenvalues --   -0.64074  -0.63133  -0.62651  -0.62649  -0.60739
 Alpha  occ. eigenvalues --   -0.59766  -0.59764  -0.57276  -0.56656  -0.56237
 Alpha  occ. eigenvalues --   -0.56236  -0.54668  -0.54667  -0.53673  -0.48492
 Alpha  occ. eigenvalues --   -0.48491  -0.48060  -0.46803  -0.46801  -0.42611
 Alpha virt. eigenvalues --   -0.11030  -0.11028  -0.10738  -0.08455  -0.08453
 Alpha virt. eigenvalues --   -0.06537  -0.01286   0.00342   0.00343   0.02249
 Alpha virt. eigenvalues --    0.02251   0.02832   0.03010   0.04569   0.04570

  Beta  occ. eigenvalues --  -14.35047 -10.20905 -10.20901 -10.20899 -10.16050
  Beta  occ. eigenvalues --  -10.16049 -10.16048 -10.16047 -10.16046 -10.16045
  Beta  occ. eigenvalues --  -10.15140 -10.15137 -10.15136 -10.15024 -10.15021
  Beta  occ. eigenvalues --  -10.15021 -10.15016 -10.15014 -10.15014  -1.19057
  Beta  occ. eigenvalues --   -1.05993  -1.05991  -1.03771  -0.96655  -0.96655
  Beta  occ. eigenvalues --   -0.94479  -0.94420  -0.94419  -0.91082  -0.84105
  Beta  occ. eigenvalues --   -0.84104  -0.81215  -0.80526  -0.80525  -0.77621
  Beta  occ. eigenvalues --   -0.75043  -0.75040  -0.71014  -0.68981  -0.68980
  Beta  occ. eigenvalues --   -0.68271  -0.65909  -0.65909  -0.64172  -0.63907
  Beta  occ. eigenvalues --   -0.63905  -0.62998  -0.62567  -0.62565  -0.60027
  Beta  occ. eigenvalues --   -0.59222  -0.59221  -0.57153  -0.56124  -0.56123
  Beta  occ. eigenvalues --   -0.55561  -0.54553  -0.54552  -0.52390  -0.47639
  Beta  occ. eigenvalues --   -0.47244  -0.47242  -0.46126  -0.46125
  Beta virt. eigenvalues --   -0.24672  -0.10468  -0.10287  -0.10286  -0.07922
  Beta virt. eigenvalues --   -0.07922  -0.05185  -0.01185   0.00417   0.00417
  Beta virt. eigenvalues --    0.02313   0.02316   0.02918   0.03050   0.04632

 Mulliken charges and spin densities:
               1          2
     1  N    0.095115   0.408980
     2  C   -0.082353  -0.027501
     3  C   -0.089174   0.113306
     4  C   -0.089305   0.113351
     5  C   -0.109698  -0.071404
     6  C   -0.109620  -0.071430
     7  C   -0.064610   0.151001
     8  H    0.188810  -0.004711
     9  H    0.188761  -0.004713
    10  H    0.155279   0.003406
    11  H    0.155284   0.003405
    12  H    0.158669  -0.007345
    13  C   -0.083524  -0.027460
    14  C   -0.089043   0.113085
    15  C   -0.088541   0.113044
    16  C   -0.109663  -0.071266
    17  C   -0.109747  -0.071226
    18  C   -0.064560   0.150618
    19  H    0.188670  -0.004705
    20  H    0.188637  -0.004702
    21  H    0.155261   0.003402
    22  H    0.155263   0.003401
    23  H    0.158660  -0.007326
    24  C   -0.083487  -0.027464
    25  C   -0.088857   0.113022
    26  C   -0.088723   0.113051
    27  C   -0.109740  -0.071215
    28  C   -0.109667  -0.071235
    29  C   -0.064574   0.150558
    30  H    0.188696  -0.004700
    31  H    0.188590  -0.004703
    32  H    0.155267   0.003399
    33  H    0.155271   0.003400
    34  H    0.158651  -0.007324
 Sum of Mulliken charges =   1.00000   1.00000

 Dipole moment (field-independent basis, Debye):
    X=             -0.0012    Y=              0.0025    Z=              0.0006  Tot=              0.0028
 Quadrupole moment (field-independent basis, Debye-Ang):
   XX=            -67.6182   YY=            -67.6242   ZZ=           -102.9030
   XY=              0.0018   XZ=              0.0005   YZ=             -0.0004

 Normal termination of Gaussian 16 at Sun Jan 17 20:27:51 2021.
