 Gaussian 16, Revision A.03,
 Gaussian 16:  EM64L-G16RevA.03 25-Dec-2016

 ----------------------------------------------------------------------
 #P LC-wHPBE/TZVP iop(3/107=0156200000, 3/108=0156200000) scf=(conver=6
 ,fermi,ndamp=35,noincfock,novaracc,vshift=500,xqc)
 ----------------------------------------------------------------------

 ----------
 H15 C18 N1
 ----------
 Symbolic Z-matrix:
 Charge =  1 Multiplicity = 2

                         Standard orientation:
 ---------------------------------------------------------------------
 Center     Atomic      Atomic             Coordinates (Angstroms)
 Number     Number       Type             X           Y           Z
 ---------------------------------------------------------------------
      1          7           0       -0.000022    0.000126   -0.001279
      2          6           0       -0.411410    1.356873   -0.000484
      3          6           0       -1.495388    1.769410    0.781179
      4          6           0        0.260509    2.302668   -0.781717
      5          6           0       -1.900964    3.098133    0.771590
      6          6           0       -0.140310    3.632823   -0.770872
      7          6           0       -1.224951    4.039050    0.000666
      8          1           0       -2.020023    1.039168    1.394849
      9          1           0        1.101979    1.987206   -1.396157
     10          1           0       -2.747815    3.402281    1.385878
     11          1           0        0.394842    4.356658   -1.384611
     12          1           0       -1.541008    5.080966    0.001027
     13          6           0       -0.969209   -1.034631   -0.000488
     14          6           0       -2.123113   -0.926761   -0.783450
     15          6           0       -0.785513   -2.178628    0.782922
     16          6           0       -3.074603   -1.938977   -0.772694
     17          6           0       -1.733510   -3.194160    0.773528
     18          6           0       -2.885344   -3.080217    0.000886
     19          1           0       -2.269925   -0.041128   -1.399284
     20          1           0        0.108384   -2.266911    1.398014
     21          1           0       -3.968013   -1.838326   -1.388087
     22          1           0       -1.574421   -4.078745    1.389358
     23          1           0       -3.629741   -3.874779    0.001646
     24          6           0        1.380705   -0.322058   -0.000436
     25          6           0        2.279720    0.408815    0.782988
     26          6           0        1.863904   -1.375397   -0.783483
     27          6           0        3.633193    0.095502    0.773256
     28          6           0        3.216226   -1.693556   -0.772877
     29          6           0        4.110133   -0.958995    0.000466
     30          1           0        1.909375    1.227058    1.398174
     31          1           0        1.170022   -1.945208   -1.399095
     32          1           0        4.319906    0.675407    1.389003
     33          1           0        3.575681   -2.517564   -1.388348
     34          1           0        5.170466   -1.206335    0.000686
 ---------------------------------------------------------------------

 SCF Done:  E(ULC-wHPBE) =  -748.925162917     A.U. after   16 cycles

 The electronic state is 2-A.
 Alpha  occ. eigenvalues --  -14.32009 -10.17272 -10.17268 -10.17266 -10.12616
 Alpha  occ. eigenvalues --  -10.12614 -10.12613 -10.12613 -10.12612 -10.12611
 Alpha  occ. eigenvalues --  -10.11787 -10.11784 -10.11784 -10.11465 -10.11463
 Alpha  occ. eigenvalues --  -10.11463 -10.11462 -10.11460 -10.11460  -1.16268
 Alpha  occ. eigenvalues --   -1.02454  -1.02453  -1.00370  -0.93258  -0.93257
 Alpha  occ. eigenvalues --   -0.91054  -0.91006  -0.91005  -0.88190  -0.81050
 Alpha  occ. eigenvalues --   -0.81050  -0.78192  -0.77410  -0.77409  -0.74613
 Alpha  occ. eigenvalues --   -0.72070  -0.72068  -0.68109  -0.66203  -0.66202
 Alpha  occ. eigenvalues --   -0.66114  -0.63157  -0.63157  -0.61415  -0.61239
 Alpha  occ. eigenvalues --   -0.61236  -0.60285  -0.59865  -0.59863  -0.57851
 Alpha  occ. eigenvalues --   -0.56810  -0.56809  -0.54683  -0.53882  -0.53684
 Alpha  occ. eigenvalues --   -0.53683  -0.52171  -0.52171  -0.51104  -0.46408
 Alpha  occ. eigenvalues --   -0.46407  -0.45966  -0.44775  -0.44774  -0.40626
 Alpha virt. eigenvalues --   -0.12590  -0.12588  -0.12348  -0.10181  -0.10180
 Alpha virt. eigenvalues --   -0.08272  -0.02879  -0.01298  -0.01297   0.00654
 Alpha virt. eigenvalues --    0.00656   0.01267   0.01413   0.02982   0.02983

  Beta  occ. eigenvalues --  -14.31175 -10.17303 -10.17299 -10.17298 -10.12476
  Beta  occ. eigenvalues --  -10.12475 -10.12474 -10.12474 -10.12472 -10.12472
  Beta  occ. eigenvalues --  -10.11623 -10.11621 -10.11620 -10.11519 -10.11517
  Beta  occ. eigenvalues --  -10.11517 -10.11512 -10.11509 -10.11509  -1.15184
  Beta  occ. eigenvalues --   -1.02232  -1.02231  -1.00067  -0.93036  -0.93035
  Beta  occ. eigenvalues --   -0.90898  -0.90846  -0.90845  -0.87645  -0.80781
  Beta  occ. eigenvalues --   -0.80781  -0.77920  -0.77265  -0.77264  -0.74439
  Beta  occ. eigenvalues --   -0.71902  -0.71900  -0.67939  -0.66013  -0.66012
  Beta  occ. eigenvalues --   -0.65307  -0.63050  -0.63050  -0.61333  -0.61092
  Beta  occ. eigenvalues --   -0.61090  -0.60162  -0.59792  -0.59790  -0.57161
  Beta  occ. eigenvalues --   -0.56369  -0.56369  -0.54567  -0.53577  -0.53576
  Beta  occ. eigenvalues --   -0.53096  -0.52067  -0.52066  -0.50130  -0.45592
  Beta  occ. eigenvalues --   -0.45367  -0.45366  -0.44266  -0.44265
  Beta virt. eigenvalues --   -0.25589  -0.12090  -0.11909  -0.11908  -0.09744
  Beta virt. eigenvalues --   -0.09743  -0.07239  -0.02773  -0.01221  -0.01221
  Beta virt. eigenvalues --    0.00720   0.00722   0.01369   0.01456   0.03046

 Mulliken charges and spin densities:
               1          2
     1  N    0.098153   0.372116
     2  C   -0.079929  -0.006551
     3  C   -0.086272   0.098053
     4  C   -0.086425   0.098099
     5  C   -0.101958  -0.054270
     6  C   -0.101880  -0.054300
     7  C   -0.059397   0.138321
     8  H    0.181278  -0.004165
     9  H    0.181231  -0.004166
    10  H    0.150366   0.002749
    11  H    0.150371   0.002748
    12  H    0.153636  -0.006878
    13  C   -0.081097  -0.006530
    14  C   -0.086166   0.097875
    15  C   -0.085641   0.097832
    16  C   -0.101921  -0.054179
    17  C   -0.102001  -0.054138
    18  C   -0.059346   0.137986
    19  H    0.181144  -0.004159
    20  H    0.181107  -0.004157
    21  H    0.150348   0.002747
    22  H    0.150351   0.002745
    23  H    0.153629  -0.006862
    24  C   -0.081078  -0.006538
    25  C   -0.085960   0.097819
    26  C   -0.085832   0.097843
    27  C   -0.101999  -0.054133
    28  C   -0.101923  -0.054155
    29  C   -0.059358   0.137934
    30  H    0.181168  -0.004155
    31  H    0.181067  -0.004157
    32  H    0.150356   0.002744
    33  H    0.150359   0.002745
    34  H    0.153620  -0.006860
 Sum of Mulliken charges =   1.00000   1.00000

 Dipole moment (field-independent basis, Debye):
    X=             -0.0010    Y=              0.0021    Z=              0.0006  Tot=              0.0024
 Quadrupole moment (field-independent basis, Debye-Ang):
   XX=            -67.6848   YY=            -67.6918   ZZ=           -103.0695
   XY=              0.0020   XZ=              0.0006   YZ=             -0.0003

 Normal termination of Gaussian 16 at Sun Jan 17 20:15:44 2021.
