 Gaussian 16, Revision A.03,
 Gaussian 16:  EM64L-G16RevA.03 25-Dec-2016

 ----------------------------------------------------------------------
 #P LC-wHPBE/TZVP iop(3/107=0197000000, 3/108=0197000000) scf=(conver=6
 ,fermi,ndamp=35,noincfock,novaracc,vshift=500,xqc)
 ----------------------------------------------------------------------

 ----------
 H15 C18 N1
 ----------
 Symbolic Z-matrix:
 Charge =  0 Multiplicity = 1

                         Standard orientation:
 ---------------------------------------------------------------------
 Center     Atomic      Atomic             Coordinates (Angstroms)
 Number     Number       Type             X           Y           Z
 ---------------------------------------------------------------------
      1          7           0       -0.000022    0.000126   -0.001279
      2          6           0       -0.411410    1.356873   -0.000484
      3          6           0       -1.495388    1.769410    0.781179
      4          6           0        0.260509    2.302668   -0.781717
      5          6           0       -1.900964    3.098133    0.771590
      6          6           0       -0.140310    3.632823   -0.770872
      7          6           0       -1.224951    4.039050    0.000666
      8          1           0       -2.020023    1.039168    1.394849
      9          1           0        1.101979    1.987206   -1.396157
     10          1           0       -2.747815    3.402281    1.385878
     11          1           0        0.394842    4.356658   -1.384611
     12          1           0       -1.541008    5.080966    0.001027
     13          6           0       -0.969209   -1.034631   -0.000488
     14          6           0       -2.123113   -0.926761   -0.783450
     15          6           0       -0.785513   -2.178628    0.782922
     16          6           0       -3.074603   -1.938977   -0.772694
     17          6           0       -1.733510   -3.194160    0.773528
     18          6           0       -2.885344   -3.080217    0.000886
     19          1           0       -2.269925   -0.041128   -1.399284
     20          1           0        0.108384   -2.266911    1.398014
     21          1           0       -3.968013   -1.838326   -1.388087
     22          1           0       -1.574421   -4.078745    1.389358
     23          1           0       -3.629741   -3.874779    0.001646
     24          6           0        1.380705   -0.322058   -0.000436
     25          6           0        2.279720    0.408815    0.782988
     26          6           0        1.863904   -1.375397   -0.783483
     27          6           0        3.633193    0.095502    0.773256
     28          6           0        3.216226   -1.693556   -0.772877
     29          6           0        4.110133   -0.958995    0.000466
     30          1           0        1.909375    1.227058    1.398174
     31          1           0        1.170022   -1.945208   -1.399095
     32          1           0        4.319906    0.675407    1.389003
     33          1           0        3.575681   -2.517564   -1.388348
     34          1           0        5.170466   -1.206335    0.000686
 ---------------------------------------------------------------------

 SCF Done:  E(RLC-wHPBE) =  -749.215234132     A.U. after   14 cycles

 The electronic state is 1-A.
 Alpha  occ. eigenvalues --  -14.13028 -10.04059 -10.04059 -10.04057 -10.00018
 Alpha  occ. eigenvalues --  -10.00018 -10.00017 -10.00017 -10.00015 -10.00014
 Alpha  occ. eigenvalues --   -9.99731  -9.99730  -9.99730  -9.99729  -9.99727
 Alpha  occ. eigenvalues --   -9.99726  -9.99547  -9.99546  -9.99542  -1.00446
 Alpha  occ. eigenvalues --   -0.89999  -0.89996  -0.88016  -0.80573  -0.80572
 Alpha  occ. eigenvalues --   -0.79061  -0.78945  -0.78943  -0.75455  -0.68085
 Alpha  occ. eigenvalues --   -0.68084  -0.65733  -0.65173  -0.65171  -0.62483
 Alpha  occ. eigenvalues --   -0.59422  -0.59422  -0.56074  -0.53683  -0.53680
 Alpha  occ. eigenvalues --   -0.52497  -0.50764  -0.50763  -0.49638  -0.48805
 Alpha  occ. eigenvalues --   -0.48803  -0.48037  -0.47740  -0.47739  -0.44434
 Alpha  occ. eigenvalues --   -0.44148  -0.44146  -0.42630  -0.41401  -0.41399
 Alpha  occ. eigenvalues --   -0.40932  -0.39798  -0.39796  -0.37489  -0.33148
 Alpha  occ. eigenvalues --   -0.33146  -0.33104  -0.31888  -0.31887  -0.24965
 Alpha virt. eigenvalues --    0.02679   0.03034   0.03036   0.05108   0.05110
 Alpha virt. eigenvalues --    0.07860   0.10621   0.11571   0.11573   0.13978
 Alpha virt. eigenvalues --    0.13979   0.14140   0.14500   0.15699   0.15700

 Mulliken charges:
               1
     1  N   -0.010508
     2  C   -0.059776
     3  C   -0.112454
     4  C   -0.112592
     5  C   -0.113258
     6  C   -0.113165
     7  C   -0.102977
     8  H    0.150933
     9  H    0.150844
    10  H    0.105769
    11  H    0.105773
    12  H    0.104533
    13  C   -0.060897
    14  C   -0.112234
    15  C   -0.111782
    16  C   -0.113182
    17  C   -0.113285
    18  C   -0.102869
    19  H    0.150771
    20  H    0.150770
    21  H    0.105778
    22  H    0.105780
    23  H    0.104561
    24  C   -0.060893
    25  C   -0.112037
    26  C   -0.111930
    27  C   -0.113297
    28  C   -0.113211
    29  C   -0.102851
    30  H    0.150840
    31  H    0.150711
    32  H    0.105789
    33  H    0.105790
    34  H    0.104557
 Sum of Mulliken charges =  -0.00000

 Dipole moment (field-independent basis, Debye):
    X=              0.0012    Y=             -0.0028    Z=              0.0006  Tot=              0.0031
 Quadrupole moment (field-independent basis, Debye-Ang):
   XX=           -103.4827   YY=           -103.5068   ZZ=           -111.2049
   XY=              0.0068   XZ=              0.0020   YZ=              0.0004

 1\1\GINC-CASCADEB040\SP\RLC-wHPBE\TZVP\C18H15N1\RDU230\17-Jan-2021\0\\
 #P LC-wHPBE/TZVP iop(3/107=0197000000, 3/108=0197000000) scf=(conver=6
 ,fermi,ndamp=35,noincfock,novaracc,vshift=500,xqc)\\H15 C18 N1\\0,1\N,
 0,0.000022,-0.000126,-0.001279\C,0,0.411521,-1.356839,-0.000484\C,0,1.
 495533,-1.769287,0.781179\C,0,-0.26032,-2.302689,-0.781717\C,0,1.90121
 8,-3.097977,0.77159\C,0,0.140608,-3.632811,-0.770872\C,0,1.225282,-4.0
 3895,0.000666\H,0,2.020108,-1.039002,1.394849\H,0,-1.101816,-1.987296,
 -1.396157\H,0,2.748094,-3.402056,1.385878\H,0,-0.394485,-4.35669,-1.38

 Normal termination of Gaussian 16 at Sun Jan 17 21:30:10 2021.
