 Gaussian 16, Revision A.03,
 Gaussian 16:  EM64L-G16RevA.03 25-Dec-2016

 ----------------------------------------------------------------------
 #P LC-wHPBE/TZVP iop(3/107=0221900000, 3/108=0221900000) scf=(conver=6
 ,fermi,ndamp=35,noincfock,novaracc,vshift=500,xqc)
 ----------------------------------------------------------------------

 ----------
 H15 C18 N1
 ----------
 Symbolic Z-matrix:
 Charge =  1 Multiplicity = 2

                         Standard orientation:
 ---------------------------------------------------------------------
 Center     Atomic      Atomic             Coordinates (Angstroms)
 Number     Number       Type             X           Y           Z
 ---------------------------------------------------------------------
      1          7           0       -0.000022    0.000126   -0.001279
      2          6           0       -0.411410    1.356873   -0.000484
      3          6           0       -1.495388    1.769410    0.781179
      4          6           0        0.260509    2.302668   -0.781717
      5          6           0       -1.900964    3.098133    0.771590
      6          6           0       -0.140310    3.632823   -0.770872
      7          6           0       -1.224951    4.039050    0.000666
      8          1           0       -2.020023    1.039168    1.394849
      9          1           0        1.101979    1.987206   -1.396157
     10          1           0       -2.747815    3.402281    1.385878
     11          1           0        0.394842    4.356658   -1.384611
     12          1           0       -1.541008    5.080966    0.001027
     13          6           0       -0.969209   -1.034631   -0.000488
     14          6           0       -2.123113   -0.926761   -0.783450
     15          6           0       -0.785513   -2.178628    0.782922
     16          6           0       -3.074603   -1.938977   -0.772694
     17          6           0       -1.733510   -3.194160    0.773528
     18          6           0       -2.885344   -3.080217    0.000886
     19          1           0       -2.269925   -0.041128   -1.399284
     20          1           0        0.108384   -2.266911    1.398014
     21          1           0       -3.968013   -1.838326   -1.388087
     22          1           0       -1.574421   -4.078745    1.389358
     23          1           0       -3.629741   -3.874779    0.001646
     24          6           0        1.380705   -0.322058   -0.000436
     25          6           0        2.279720    0.408815    0.782988
     26          6           0        1.863904   -1.375397   -0.783483
     27          6           0        3.633193    0.095502    0.773256
     28          6           0        3.216226   -1.693556   -0.772877
     29          6           0        4.110133   -0.958995    0.000466
     30          1           0        1.909375    1.227058    1.398174
     31          1           0        1.170022   -1.945208   -1.399095
     32          1           0        4.319906    0.675407    1.389003
     33          1           0        3.575681   -2.517564   -1.388348
     34          1           0        5.170466   -1.206335    0.000686
 ---------------------------------------------------------------------

 SCF Done:  E(ULC-wHPBE) =  -748.988991769     A.U. after   17 cycles

 The electronic state is 2-A.
 Alpha  occ. eigenvalues --  -14.36162 -10.21036 -10.21031 -10.21029 -10.16397
 Alpha  occ. eigenvalues --  -10.16395 -10.16394 -10.16393 -10.16392 -10.16391
 Alpha  occ. eigenvalues --  -10.15503 -10.15499 -10.15499 -10.15136 -10.15133
 Alpha  occ. eigenvalues --  -10.15133 -10.15133 -10.15130 -10.15130  -1.20437
 Alpha  occ. eigenvalues --   -1.06415  -1.06413  -1.04296  -0.97063  -0.97062
 Alpha  occ. eigenvalues --   -0.94825  -0.94770  -0.94769  -0.91895  -0.84565
 Alpha  occ. eigenvalues --   -0.84564  -0.81677  -0.80836  -0.80835  -0.77958
 Alpha  occ. eigenvalues --   -0.75369  -0.75367  -0.71356  -0.69399  -0.69336
 Alpha  occ. eigenvalues --   -0.69335  -0.66155  -0.66155  -0.64392  -0.64216
 Alpha  occ. eigenvalues --   -0.64213  -0.63272  -0.62788  -0.62785  -0.60881
 Alpha  occ. eigenvalues --   -0.59909  -0.59907  -0.57402  -0.56790  -0.56361
 Alpha  occ. eigenvalues --   -0.56360  -0.54788  -0.54787  -0.53795  -0.48586
 Alpha  occ. eigenvalues --   -0.48585  -0.48154  -0.46894  -0.46892  -0.42702
 Alpha virt. eigenvalues --   -0.10965  -0.10962  -0.10670  -0.08381  -0.08379
 Alpha virt. eigenvalues --   -0.06463  -0.01219   0.00412   0.00413   0.02316
 Alpha virt. eigenvalues --    0.02318   0.02898   0.03077   0.04636   0.04637

  Beta  occ. eigenvalues --  -14.35250 -10.21096 -10.21091 -10.21089 -10.16239
  Beta  occ. eigenvalues --  -10.16237 -10.16236 -10.16236 -10.16234 -10.16234
  Beta  occ. eigenvalues --  -10.15326 -10.15323 -10.15322 -10.15209 -10.15206
  Beta  occ. eigenvalues --  -10.15206 -10.15202 -10.15199 -10.15199  -1.19261
  Beta  occ. eigenvalues --   -1.06191  -1.06190  -1.03965  -0.96843  -0.96842
  Beta  occ. eigenvalues --   -0.94665  -0.94606  -0.94605  -0.91259  -0.84273
  Beta  occ. eigenvalues --   -0.84272  -0.81382  -0.80691  -0.80690  -0.77781
  Beta  occ. eigenvalues --   -0.75199  -0.75196  -0.71166  -0.69127  -0.69127
  Beta  occ. eigenvalues --   -0.68416  -0.66049  -0.66049  -0.64311  -0.64045
  Beta  occ. eigenvalues --   -0.64042  -0.63137  -0.62703  -0.62701  -0.60166
  Beta  occ. eigenvalues --   -0.59358  -0.59357  -0.57278  -0.56247  -0.56246
  Beta  occ. eigenvalues --   -0.55679  -0.54673  -0.54672  -0.52494  -0.47730
  Beta  occ. eigenvalues --   -0.47329  -0.47327  -0.46209  -0.46207
  Beta virt. eigenvalues --   -0.24635  -0.10400  -0.10219  -0.10218  -0.07843
  Beta virt. eigenvalues --   -0.07843  -0.05094  -0.01117   0.00487   0.00488
  Beta virt. eigenvalues --    0.02380   0.02383   0.02983   0.03117   0.04699

 Mulliken charges and spin densities:
               1          2
     1  N    0.094867   0.410799
     2  C   -0.082607  -0.028720
     3  C   -0.089422   0.114238
     4  C   -0.089552   0.114283
     5  C   -0.110143  -0.072476
     6  C   -0.110064  -0.072502
     7  C   -0.064980   0.151909
     8  H    0.189309  -0.004743
     9  H    0.189260  -0.004745
    10  H    0.155642   0.003447
    11  H    0.155647   0.003446
    12  H    0.159037  -0.007378
    13  C   -0.083777  -0.028677
    14  C   -0.089291   0.114015
    15  C   -0.088789   0.113974
    16  C   -0.110108  -0.072335
    17  C   -0.110192  -0.072295
    18  C   -0.064931   0.151524
    19  H    0.189168  -0.004737
    20  H    0.189136  -0.004734
    21  H    0.155624   0.003443
    22  H    0.155627   0.003441
    23  H    0.159028  -0.007359
    24  C   -0.083739  -0.028681
    25  C   -0.089105   0.113951
    26  C   -0.088971   0.113980
    27  C   -0.110185  -0.072283
    28  C   -0.110112  -0.072304
    29  C   -0.064945   0.151462
    30  H    0.189195  -0.004732
    31  H    0.189088  -0.004735
    32  H    0.155630   0.003440
    33  H    0.155634   0.003441
    34  H    0.159019  -0.007357
 Sum of Mulliken charges =   1.00000   1.00000

 Dipole moment (field-independent basis, Debye):
    X=             -0.0012    Y=              0.0025    Z=              0.0006  Tot=              0.0028
 Quadrupole moment (field-independent basis, Debye-Ang):
   XX=            -67.6122   YY=            -67.6182   ZZ=           -102.8946
   XY=              0.0018   XZ=              0.0005   YZ=             -0.0004

 Normal termination of Gaussian 16 at Sun Jan 17 19:51:52 2021.
