 Gaussian 16, Revision A.03,
 Gaussian 16:  EM64L-G16RevA.03 25-Dec-2016

 ----------------------------------------------------------------------
 #P LC-wHPBE/TZVP iop(3/107=0194300000, 3/108=0194300000) scf=(conver=6
 ,fermi,ndamp=35,noincfock,novaracc,vshift=500,xqc)
 ----------------------------------------------------------------------

 ----------
 H15 C18 N1
 ----------
 Symbolic Z-matrix:
 Charge =  1 Multiplicity = 2

                         Standard orientation:
 ---------------------------------------------------------------------
 Center     Atomic      Atomic             Coordinates (Angstroms)
 Number     Number       Type             X           Y           Z
 ---------------------------------------------------------------------
      1          7           0       -0.000022    0.000126   -0.001279
      2          6           0       -0.411410    1.356873   -0.000484
      3          6           0       -1.495388    1.769410    0.781179
      4          6           0        0.260509    2.302668   -0.781717
      5          6           0       -1.900964    3.098133    0.771590
      6          6           0       -0.140310    3.632823   -0.770872
      7          6           0       -1.224951    4.039050    0.000666
      8          1           0       -2.020023    1.039168    1.394849
      9          1           0        1.101979    1.987206   -1.396157
     10          1           0       -2.747815    3.402281    1.385878
     11          1           0        0.394842    4.356658   -1.384611
     12          1           0       -1.541008    5.080966    0.001027
     13          6           0       -0.969209   -1.034631   -0.000488
     14          6           0       -2.123113   -0.926761   -0.783450
     15          6           0       -0.785513   -2.178628    0.782922
     16          6           0       -3.074603   -1.938977   -0.772694
     17          6           0       -1.733510   -3.194160    0.773528
     18          6           0       -2.885344   -3.080217    0.000886
     19          1           0       -2.269925   -0.041128   -1.399284
     20          1           0        0.108384   -2.266911    1.398014
     21          1           0       -3.968013   -1.838326   -1.388087
     22          1           0       -1.574421   -4.078745    1.389358
     23          1           0       -3.629741   -3.874779    0.001646
     24          6           0        1.380705   -0.322058   -0.000436
     25          6           0        2.279720    0.408815    0.782988
     26          6           0        1.863904   -1.375397   -0.783483
     27          6           0        3.633193    0.095502    0.773256
     28          6           0        3.216226   -1.693556   -0.772877
     29          6           0        4.110133   -0.958995    0.000466
     30          1           0        1.909375    1.227058    1.398174
     31          1           0        1.170022   -1.945208   -1.399095
     32          1           0        4.319906    0.675407    1.389003
     33          1           0        3.575681   -2.517564   -1.388348
     34          1           0        5.170466   -1.206335    0.000686
 ---------------------------------------------------------------------

 SCF Done:  E(ULC-wHPBE) =  -748.962943410     A.U. after   16 cycles

 The electronic state is 2-A.
 Alpha  occ. eigenvalues --  -14.34426 -10.19453 -10.19449 -10.19447 -10.14809
 Alpha  occ. eigenvalues --  -10.14808 -10.14807 -10.14807 -10.14805 -10.14805
 Alpha  occ. eigenvalues --  -10.13940 -10.13937 -10.13936 -10.13595 -10.13593
 Alpha  occ. eigenvalues --  -10.13592 -10.13591 -10.13589 -10.13589  -1.18688
 Alpha  occ. eigenvalues --   -1.04752  -1.04750  -1.02650  -0.95479  -0.95478
 Alpha  occ. eigenvalues --   -0.93256  -0.93204  -0.93203  -0.90359  -0.83123
 Alpha  occ. eigenvalues --   -0.83122  -0.80245  -0.79432  -0.79431  -0.76593
 Alpha  occ. eigenvalues --   -0.74031  -0.74028  -0.70041  -0.68070  -0.68069
 Alpha  occ. eigenvalues --   -0.68065  -0.64947  -0.64947  -0.63194  -0.63018
 Alpha  occ. eigenvalues --   -0.63015  -0.62070  -0.61612  -0.61610  -0.59662
 Alpha  occ. eigenvalues --   -0.58672  -0.58670  -0.56317  -0.55630  -0.55292
 Alpha  occ. eigenvalues --   -0.55292  -0.53746  -0.53746  -0.52730  -0.47752
 Alpha  occ. eigenvalues --   -0.47751  -0.47319  -0.46086  -0.46084  -0.41897
 Alpha virt. eigenvalues --   -0.11562  -0.11560  -0.11288  -0.09048  -0.09047
 Alpha virt. eigenvalues --   -0.07132  -0.01833  -0.00223  -0.00222   0.01706
 Alpha virt. eigenvalues --    0.01708   0.02297   0.02465   0.04026   0.04027

  Beta  occ. eigenvalues --  -14.33546 -10.19501 -10.19497 -10.19495 -10.14660
  Beta  occ. eigenvalues --  -10.14658 -10.14658 -10.14657 -10.14656 -10.14656
  Beta  occ. eigenvalues --  -10.13770 -10.13767 -10.13766 -10.13659 -10.13657
  Beta  occ. eigenvalues --  -10.13657 -10.13652 -10.13649 -10.13649  -1.17550
  Beta  occ. eigenvalues --   -1.04530  -1.04528  -1.02332  -0.95259  -0.95258
  Beta  occ. eigenvalues --   -0.93098  -0.93042  -0.93041  -0.89764  -0.82841
  Beta  occ. eigenvalues --   -0.82840  -0.79962  -0.79287  -0.79286  -0.76418
  Beta  occ. eigenvalues --   -0.73861  -0.73859  -0.69861  -0.67870  -0.67869
  Beta  occ. eigenvalues --   -0.67165  -0.64841  -0.64841  -0.63113  -0.62858
  Beta  occ. eigenvalues --   -0.62856  -0.61940  -0.61532  -0.61530  -0.58964
  Beta  occ. eigenvalues --   -0.58175  -0.58175  -0.56196  -0.55182  -0.55181
  Beta  occ. eigenvalues --   -0.54655  -0.53635  -0.53634  -0.51576  -0.46918
  Beta  occ. eigenvalues --   -0.46575  -0.46574  -0.45472  -0.45471
  Beta virt. eigenvalues --   -0.24979  -0.11022  -0.10841  -0.10840  -0.08555
  Beta virt. eigenvalues --   -0.08554  -0.05908  -0.01729  -0.00148  -0.00147
  Beta virt. eigenvalues --    0.01770   0.01773   0.02390   0.02506   0.04089

 Mulliken charges and spin densities:
               1          2
     1  N    0.096692   0.395046
     2  C   -0.080870  -0.018810
     3  C   -0.087614   0.106799
     4  C   -0.087754   0.106844
     5  C   -0.106509  -0.063995
     6  C   -0.106430  -0.064022
     7  C   -0.062130   0.145038
     8  H    0.185417  -0.004488
     9  H    0.185368  -0.004489
    10  H    0.152894   0.003127
    11  H    0.152899   0.003126
    12  H    0.156242  -0.007126
    13  C   -0.082043  -0.018777
    14  C   -0.087493   0.106595
    15  C   -0.086981   0.106554
    16  C   -0.106473  -0.063877
    17  C   -0.106556  -0.063836
    18  C   -0.062078   0.144676
    19  H    0.185279  -0.004482
    20  H    0.185245  -0.004479
    21  H    0.152876   0.003124
    22  H    0.152879   0.003122
    23  H    0.156234  -0.007108
    24  C   -0.082011  -0.018783
    25  C   -0.087298   0.106536
    26  C   -0.087168   0.106562
    27  C   -0.106551  -0.063828
    28  C   -0.106476  -0.063849
    29  C   -0.062092   0.144619
    30  H    0.185305  -0.004477
    31  H    0.185200  -0.004479
    32  H    0.152883   0.003121
    33  H    0.152887   0.003122
    34  H    0.156225  -0.007106
 Sum of Mulliken charges =   1.00000   1.00000

 Dipole moment (field-independent basis, Debye):
    X=             -0.0011    Y=              0.0023    Z=              0.0006  Tot=              0.0027
 Quadrupole moment (field-independent basis, Debye-Ang):
   XX=            -67.6548   YY=            -67.6612   ZZ=           -102.9666
   XY=              0.0019   XZ=              0.0005   YZ=             -0.0003

 Normal termination of Gaussian 16 at Sun Jan 17 21:14:21 2021.
