 Gaussian 16, Revision A.03,
 Gaussian 16:  EM64L-G16RevA.03 25-Dec-2016

 ----------------------------------------------------------------------
 #P LC-wHPBE/TZVP iop(3/107=0197000000, 3/108=0197000000) scf=(conver=6
 ,fermi,ndamp=35,noincfock,novaracc,vshift=500,xqc)
 ----------------------------------------------------------------------

 ----------
 H15 C18 N1
 ----------
 Symbolic Z-matrix:
 Charge =  1 Multiplicity = 2

                         Standard orientation:
 ---------------------------------------------------------------------
 Center     Atomic      Atomic             Coordinates (Angstroms)
 Number     Number       Type             X           Y           Z
 ---------------------------------------------------------------------
      1          7           0       -0.000022    0.000126   -0.001279
      2          6           0       -0.411410    1.356873   -0.000484
      3          6           0       -1.495388    1.769410    0.781179
      4          6           0        0.260509    2.302668   -0.781717
      5          6           0       -1.900964    3.098133    0.771590
      6          6           0       -0.140310    3.632823   -0.770872
      7          6           0       -1.224951    4.039050    0.000666
      8          1           0       -2.020023    1.039168    1.394849
      9          1           0        1.101979    1.987206   -1.396157
     10          1           0       -2.747815    3.402281    1.385878
     11          1           0        0.394842    4.356658   -1.384611
     12          1           0       -1.541008    5.080966    0.001027
     13          6           0       -0.969209   -1.034631   -0.000488
     14          6           0       -2.123113   -0.926761   -0.783450
     15          6           0       -0.785513   -2.178628    0.782922
     16          6           0       -3.074603   -1.938977   -0.772694
     17          6           0       -1.733510   -3.194160    0.773528
     18          6           0       -2.885344   -3.080217    0.000886
     19          1           0       -2.269925   -0.041128   -1.399284
     20          1           0        0.108384   -2.266911    1.398014
     21          1           0       -3.968013   -1.838326   -1.388087
     22          1           0       -1.574421   -4.078745    1.389358
     23          1           0       -3.629741   -3.874779    0.001646
     24          6           0        1.380705   -0.322058   -0.000436
     25          6           0        2.279720    0.408815    0.782988
     26          6           0        1.863904   -1.375397   -0.783483
     27          6           0        3.633193    0.095502    0.773256
     28          6           0        3.216226   -1.693556   -0.772877
     29          6           0        4.110133   -0.958995    0.000466
     30          1           0        1.909375    1.227058    1.398174
     31          1           0        1.170022   -1.945208   -1.399095
     32          1           0        4.319906    0.675407    1.389003
     33          1           0        3.575681   -2.517564   -1.388348
     34          1           0        5.170466   -1.206335    0.000686
 ---------------------------------------------------------------------

 SCF Done:  E(ULC-wHPBE) =  -748.965559964     A.U. after   16 cycles

 The electronic state is 2-A.
 Alpha  occ. eigenvalues --  -14.34596 -10.19608 -10.19604 -10.19602 -10.14965
 Alpha  occ. eigenvalues --  -10.14963 -10.14962 -10.14962 -10.14961 -10.14960
 Alpha  occ. eigenvalues --  -10.14093 -10.14089 -10.14089 -10.13745 -10.13743
 Alpha  occ. eigenvalues --  -10.13743 -10.13742 -10.13740 -10.13740  -1.18859
 Alpha  occ. eigenvalues --   -1.04915  -1.04913  -1.02811  -0.95635  -0.95634
 Alpha  occ. eigenvalues --   -0.93411  -0.93359  -0.93358  -0.90510  -0.83266
 Alpha  occ. eigenvalues --   -0.83266  -0.80387  -0.79571  -0.79570  -0.76729
 Alpha  occ. eigenvalues --   -0.74165  -0.74162  -0.70173  -0.68199  -0.68197
 Alpha  occ. eigenvalues --   -0.68196  -0.65069  -0.65069  -0.63315  -0.63138
 Alpha  occ. eigenvalues --   -0.63136  -0.62191  -0.61730  -0.61728  -0.59785
 Alpha  occ. eigenvalues --   -0.58797  -0.58795  -0.56426  -0.55748  -0.55400
 Alpha  occ. eigenvalues --   -0.55400  -0.53852  -0.53851  -0.52838  -0.47838
 Alpha  occ. eigenvalues --   -0.47837  -0.47406  -0.46170  -0.46168  -0.41980
 Alpha virt. eigenvalues --   -0.11499  -0.11497  -0.11223  -0.08978  -0.08976
 Alpha virt. eigenvalues --   -0.07061  -0.01768  -0.00155  -0.00155   0.01771
 Alpha virt. eigenvalues --    0.01773   0.02361   0.02530   0.04091   0.04092

  Beta  occ. eigenvalues --  -14.33713 -10.19657 -10.19653 -10.19651 -10.14814
  Beta  occ. eigenvalues --  -10.14813 -10.14812 -10.14812 -10.14811 -10.14810
  Beta  occ. eigenvalues --  -10.13922 -10.13919 -10.13919 -10.13811 -10.13808
  Beta  occ. eigenvalues --  -10.13808 -10.13803 -10.13801 -10.13801  -1.17717
  Beta  occ. eigenvalues --   -1.04692  -1.04691  -1.02492  -0.95415  -0.95414
  Beta  occ. eigenvalues --   -0.93252  -0.93196  -0.93195  -0.89912  -0.82984
  Beta  occ. eigenvalues --   -0.82983  -0.80103  -0.79427  -0.79426  -0.76554
  Beta  occ. eigenvalues --   -0.73995  -0.73993  -0.69992  -0.67996  -0.67995
  Beta  occ. eigenvalues --   -0.67291  -0.64963  -0.64962  -0.63233  -0.62978
  Beta  occ. eigenvalues --   -0.62975  -0.62061  -0.61650  -0.61648  -0.59085
  Beta  occ. eigenvalues --   -0.58296  -0.58295  -0.56305  -0.55289  -0.55289
  Beta  occ. eigenvalues --   -0.54759  -0.53740  -0.53739  -0.51671  -0.47003
  Beta  occ. eigenvalues --   -0.46653  -0.46652  -0.45549  -0.45548
  Beta virt. eigenvalues --   -0.24942  -0.10956  -0.10775  -0.10774  -0.08480
  Beta virt. eigenvalues --   -0.08479  -0.05823  -0.01665  -0.00080  -0.00080
  Beta virt. eigenvalues --    0.01835   0.01838   0.02453   0.02571   0.04154

 Mulliken charges and spin densities:
               1          2
     1  N    0.096535   0.396621
     2  C   -0.080999  -0.019739
     3  C   -0.087763   0.107480
     4  C   -0.087902   0.107525
     5  C   -0.106854  -0.064766
     6  C   -0.106775  -0.064793
     7  C   -0.062381   0.145635
     8  H    0.185767  -0.004512
     9  H    0.185719  -0.004514
    10  H    0.153132   0.003157
    11  H    0.153137   0.003156
    12  H    0.156486  -0.007148
    13  C   -0.082172  -0.019706
    14  C   -0.087640   0.107274
    15  C   -0.087129   0.107233
    16  C   -0.106819  -0.064646
    17  C   -0.106902  -0.064606
    18  C   -0.062329   0.145271
    19  H    0.185629  -0.004506
    20  H    0.185596  -0.004503
    21  H    0.153114   0.003154
    22  H    0.153117   0.003152
    23  H    0.156477  -0.007130
    24  C   -0.082140  -0.019711
    25  C   -0.087446   0.107214
    26  C   -0.087316   0.107241
    27  C   -0.106897  -0.064597
    28  C   -0.106822  -0.064618
    29  C   -0.062343   0.145213
    30  H    0.185655  -0.004502
    31  H    0.185550  -0.004504
    32  H    0.153121   0.003151
    33  H    0.153125   0.003151
    34  H    0.156469  -0.007128
 Sum of Mulliken charges =   1.00000   1.00000

 Dipole moment (field-independent basis, Debye):
    X=             -0.0011    Y=              0.0023    Z=              0.0006  Tot=              0.0027
 Quadrupole moment (field-independent basis, Debye-Ang):
   XX=            -67.6513   YY=            -67.6577   ZZ=           -102.9594
   XY=              0.0019   XZ=              0.0005   YZ=             -0.0003

 Normal termination of Gaussian 16 at Sun Jan 17 21:36:53 2021.
