 Gaussian 16, Revision A.03,
 Gaussian 16:  EM64L-G16RevA.03 25-Dec-2016

 ----------------------------------------------------------------------
 #P LC-wHPBE/TZVP iop(3/107=0197300000, 3/108=0197300000) scf=(conver=6
 ,fermi,ndamp=35,noincfock,novaracc,vshift=500,xqc)
 ----------------------------------------------------------------------

 ----------
 H15 C18 N1
 ----------
 Symbolic Z-matrix:
 Charge =  0 Multiplicity = 1

                         Standard orientation:
 ---------------------------------------------------------------------
 Center     Atomic      Atomic             Coordinates (Angstroms)
 Number     Number       Type             X           Y           Z
 ---------------------------------------------------------------------
      1          7           0       -0.000022    0.000126   -0.001279
      2          6           0       -0.411410    1.356873   -0.000484
      3          6           0       -1.495388    1.769410    0.781179
      4          6           0        0.260509    2.302668   -0.781717
      5          6           0       -1.900964    3.098133    0.771590
      6          6           0       -0.140310    3.632823   -0.770872
      7          6           0       -1.224951    4.039050    0.000666
      8          1           0       -2.020023    1.039168    1.394849
      9          1           0        1.101979    1.987206   -1.396157
     10          1           0       -2.747815    3.402281    1.385878
     11          1           0        0.394842    4.356658   -1.384611
     12          1           0       -1.541008    5.080966    0.001027
     13          6           0       -0.969209   -1.034631   -0.000488
     14          6           0       -2.123113   -0.926761   -0.783450
     15          6           0       -0.785513   -2.178628    0.782922
     16          6           0       -3.074603   -1.938977   -0.772694
     17          6           0       -1.733510   -3.194160    0.773528
     18          6           0       -2.885344   -3.080217    0.000886
     19          1           0       -2.269925   -0.041128   -1.399284
     20          1           0        0.108384   -2.266911    1.398014
     21          1           0       -3.968013   -1.838326   -1.388087
     22          1           0       -1.574421   -4.078745    1.389358
     23          1           0       -3.629741   -3.874779    0.001646
     24          6           0        1.380705   -0.322058   -0.000436
     25          6           0        2.279720    0.408815    0.782988
     26          6           0        1.863904   -1.375397   -0.783483
     27          6           0        3.633193    0.095502    0.773256
     28          6           0        3.216226   -1.693556   -0.772877
     29          6           0        4.110133   -0.958995    0.000466
     30          1           0        1.909375    1.227058    1.398174
     31          1           0        1.170022   -1.945208   -1.399095
     32          1           0        4.319906    0.675407    1.389003
     33          1           0        3.575681   -2.517564   -1.388348
     34          1           0        5.170466   -1.206335    0.000686
 ---------------------------------------------------------------------

 SCF Done:  E(RLC-wHPBE) =  -749.215542236     A.U. after   14 cycles

 The electronic state is 1-A.
 Alpha  occ. eigenvalues --  -14.13043 -10.04076 -10.04076 -10.04074 -10.00035
 Alpha  occ. eigenvalues --  -10.00035 -10.00034 -10.00034 -10.00031 -10.00031
 Alpha  occ. eigenvalues --   -9.99748  -9.99747  -9.99747  -9.99746  -9.99744
 Alpha  occ. eigenvalues --   -9.99742  -9.99564  -9.99563  -9.99559  -1.00463
 Alpha  occ. eigenvalues --   -0.90017  -0.90014  -0.88033  -0.80590  -0.80589
 Alpha  occ. eigenvalues --   -0.79078  -0.78962  -0.78960  -0.75471  -0.68101
 Alpha  occ. eigenvalues --   -0.68099  -0.65748  -0.65188  -0.65186  -0.62498
 Alpha  occ. eigenvalues --   -0.59437  -0.59436  -0.56088  -0.53696  -0.53694
 Alpha  occ. eigenvalues --   -0.52511  -0.50777  -0.50776  -0.49651  -0.48818
 Alpha  occ. eigenvalues --   -0.48816  -0.48050  -0.47753  -0.47751  -0.44448
 Alpha  occ. eigenvalues --   -0.44161  -0.44159  -0.42642  -0.41413  -0.41410
 Alpha  occ. eigenvalues --   -0.40943  -0.39809  -0.39807  -0.37501  -0.33157
 Alpha  occ. eigenvalues --   -0.33155  -0.33113  -0.31897  -0.31896  -0.24972
 Alpha virt. eigenvalues --    0.02686   0.03041   0.03043   0.05116   0.05118
 Alpha virt. eigenvalues --    0.07868   0.10629   0.11579   0.11581   0.13985
 Alpha virt. eigenvalues --    0.13986   0.14147   0.14507   0.15706   0.15707

 Mulliken charges:
               1
     1  N   -0.010606
     2  C   -0.059764
     3  C   -0.112482
     4  C   -0.112619
     5  C   -0.113286
     6  C   -0.113193
     7  C   -0.103019
     8  H    0.150973
     9  H    0.150884
    10  H    0.105799
    11  H    0.105804
    12  H    0.104564
    13  C   -0.060885
    14  C   -0.112261
    15  C   -0.111809
    16  C   -0.113210
    17  C   -0.113313
    18  C   -0.102912
    19  H    0.150811
    20  H    0.150810
    21  H    0.105809
    22  H    0.105810
    23  H    0.104593
    24  C   -0.060881
    25  C   -0.112064
    26  C   -0.111957
    27  C   -0.113325
    28  C   -0.113239
    29  C   -0.102894
    30  H    0.150880
    31  H    0.150751
    32  H    0.105820
    33  H    0.105820
    34  H    0.104589
 Sum of Mulliken charges =  -0.00000

 Dipole moment (field-independent basis, Debye):
    X=              0.0012    Y=             -0.0028    Z=              0.0006  Tot=              0.0031
 Quadrupole moment (field-independent basis, Debye-Ang):
   XX=           -103.4807   YY=           -103.5048   ZZ=           -111.2038
   XY=              0.0068   XZ=              0.0020   YZ=              0.0004

 1\1\GINC-CASCADEB040\SP\RLC-wHPBE\TZVP\C18H15N1\RDU230\17-Jan-2021\0\\
 #P LC-wHPBE/TZVP iop(3/107=0197300000, 3/108=0197300000) scf=(conver=6
 ,fermi,ndamp=35,noincfock,novaracc,vshift=500,xqc)\\H15 C18 N1\\0,1\N,
 0,0.000022,-0.000126,-0.001279\C,0,0.411521,-1.356839,-0.000484\C,0,1.
 495533,-1.769287,0.781179\C,0,-0.26032,-2.302689,-0.781717\C,0,1.90121
 8,-3.097977,0.77159\C,0,0.140608,-3.632811,-0.770872\C,0,1.225282,-4.0
 3895,0.000666\H,0,2.020108,-1.039002,1.394849\H,0,-1.101816,-1.987296,
 -1.396157\H,0,2.748094,-3.402056,1.385878\H,0,-0.394485,-4.35669,-1.38

 Normal termination of Gaussian 16 at Sun Jan 17 21:41:26 2021.
