 Gaussian 16, Revision A.03,
 Gaussian 16:  EM64L-G16RevA.03 25-Dec-2016

 ----------------------------------------------------------------------
 #P LC-wHPBE/TZVP iop(3/107=0328100000, 3/108=0328100000) scf=(conver=6
 ,fermi,ndamp=35,noincfock,novaracc,vshift=500,xqc)
 ----------------------------------------------------------------------

 ----------
 H15 C18 N1
 ----------
 Symbolic Z-matrix:
 Charge =  1 Multiplicity = 2

                         Standard orientation:
 ---------------------------------------------------------------------
 Center     Atomic      Atomic             Coordinates (Angstroms)
 Number     Number       Type             X           Y           Z
 ---------------------------------------------------------------------
      1          7           0       -0.000022    0.000126   -0.001279
      2          6           0       -0.411410    1.356873   -0.000484
      3          6           0       -1.495388    1.769410    0.781179
      4          6           0        0.260509    2.302668   -0.781717
      5          6           0       -1.900964    3.098133    0.771590
      6          6           0       -0.140310    3.632823   -0.770872
      7          6           0       -1.224951    4.039050    0.000666
      8          1           0       -2.020023    1.039168    1.394849
      9          1           0        1.101979    1.987206   -1.396157
     10          1           0       -2.747815    3.402281    1.385878
     11          1           0        0.394842    4.356658   -1.384611
     12          1           0       -1.541008    5.080966    0.001027
     13          6           0       -0.969209   -1.034631   -0.000488
     14          6           0       -2.123113   -0.926761   -0.783450
     15          6           0       -0.785513   -2.178628    0.782922
     16          6           0       -3.074603   -1.938977   -0.772694
     17          6           0       -1.733510   -3.194160    0.773528
     18          6           0       -2.885344   -3.080217    0.000886
     19          1           0       -2.269925   -0.041128   -1.399284
     20          1           0        0.108384   -2.266911    1.398014
     21          1           0       -3.968013   -1.838326   -1.388087
     22          1           0       -1.574421   -4.078745    1.389358
     23          1           0       -3.629741   -3.874779    0.001646
     24          6           0        1.380705   -0.322058   -0.000436
     25          6           0        2.279720    0.408815    0.782988
     26          6           0        1.863904   -1.375397   -0.783483
     27          6           0        3.633193    0.095502    0.773256
     28          6           0        3.216226   -1.693556   -0.772877
     29          6           0        4.110133   -0.958995    0.000466
     30          1           0        1.909375    1.227058    1.398174
     31          1           0        1.170022   -1.945208   -1.399095
     32          1           0        4.319906    0.675407    1.389003
     33          1           0        3.575681   -2.517564   -1.388348
     34          1           0        5.170466   -1.206335    0.000686
 ---------------------------------------------------------------------

 SCF Done:  E(ULC-wHPBE) =  -749.067453236     A.U. after   18 cycles

 The electronic state is 2-A.
 Alpha  occ. eigenvalues --  -14.42699 -10.27135 -10.27132 -10.27129 -10.22486
 Alpha  occ. eigenvalues --  -10.22484 -10.22484 -10.22483 -10.22481 -10.22481
 Alpha  occ. eigenvalues --  -10.21530 -10.21526 -10.21525 -10.21059 -10.21056
 Alpha  occ. eigenvalues --  -10.21055 -10.21055 -10.21052 -10.21052  -1.26959
 Alpha  occ. eigenvalues --   -1.12609  -1.12607  -1.10387  -1.02772  -1.02771
 Alpha  occ. eigenvalues --   -1.00486  -1.00415  -1.00414  -0.97382  -0.89528
 Alpha  occ. eigenvalues --   -0.89527  -0.86615  -0.85659  -0.85658  -0.82579
 Alpha  occ. eigenvalues --   -0.79807  -0.79804  -0.75695  -0.73835  -0.73515
 Alpha  occ. eigenvalues --   -0.73515  -0.70107  -0.70107  -0.68304  -0.68108
 Alpha  occ. eigenvalues --   -0.68105  -0.67166  -0.66618  -0.66615  -0.64810
 Alpha  occ. eigenvalues --   -0.63719  -0.63717  -0.60890  -0.60427  -0.59797
 Alpha  occ. eigenvalues --   -0.59796  -0.58121  -0.58120  -0.57130  -0.50929
 Alpha  occ. eigenvalues --   -0.50928  -0.50485  -0.49129  -0.49127  -0.45092
 Alpha virt. eigenvalues --   -0.09494  -0.09491  -0.09131  -0.06686  -0.06684
 Alpha virt. eigenvalues --   -0.04775   0.00311   0.02004   0.02005   0.03802
 Alpha virt. eigenvalues --    0.03804   0.04385   0.04575   0.06137   0.06138

  Beta  occ. eigenvalues --  -14.41681 -10.27251 -10.27247 -10.27244 -10.22287
  Beta  occ. eigenvalues --  -10.22285 -10.22285 -10.22285 -10.22282 -10.22282
  Beta  occ. eigenvalues --  -10.21314 -10.21310 -10.21309 -10.21177 -10.21174
  Beta  occ. eigenvalues --  -10.21174 -10.21169 -10.21166 -10.21166  -1.25639
  Beta  occ. eigenvalues --   -1.12368  -1.12366  -1.09989  -1.02549  -1.02548
  Beta  occ. eigenvalues --   -1.00313  -1.00237  -1.00236  -0.96541  -0.89194
  Beta  occ. eigenvalues --   -0.89193  -0.86253  -0.85511  -0.85510  -0.82397
  Beta  occ. eigenvalues --   -0.79635  -0.79632  -0.75456  -0.73263  -0.73262
  Beta  occ. eigenvalues --   -0.72443  -0.70008  -0.70008  -0.68227  -0.67900
  Beta  occ. eigenvalues --   -0.67898  -0.67009  -0.66514  -0.66511  -0.63913
  Beta  occ. eigenvalues --   -0.62919  -0.62918  -0.60748  -0.59668  -0.59667
  Beta  occ. eigenvalues --   -0.58927  -0.57998  -0.57997  -0.55187  -0.49950
  Beta  occ. eigenvalues --   -0.49447  -0.49445  -0.48262  -0.48259
  Beta virt. eigenvalues --   -0.23731  -0.08878  -0.08654  -0.08653  -0.05980
  Beta virt. eigenvalues --   -0.05979  -0.02922   0.00409   0.02084   0.02084
  Beta virt. eigenvalues --    0.03866   0.03869   0.04441   0.04612   0.06201

 Mulliken charges and spin densities:
               1          2
     1  N    0.085295   0.461300
     2  C   -0.094440  -0.073703
     3  C   -0.100551   0.152420
     4  C   -0.100661   0.152469
     5  C   -0.124456  -0.116735
     6  C   -0.124381  -0.116761
     7  C   -0.078666   0.193034
     8  H    0.207722  -0.006071
     9  H    0.207674  -0.006073
    10  H    0.169904   0.005159
    11  H    0.169909   0.005158
    12  H    0.173289  -0.008946
    13  C   -0.095613  -0.073607
    14  C   -0.100411   0.152104
    15  C   -0.099947   0.152061
    16  C   -0.124417  -0.116486
    17  C   -0.124496  -0.116443
    18  C   -0.078628   0.192532
    19  H    0.207579  -0.006061
    20  H    0.207551  -0.006059
    21  H    0.169886   0.005150
    22  H    0.169889   0.005148
    23  H    0.173278  -0.008922
    24  C   -0.095560  -0.073602
    25  C   -0.100250   0.152021
    26  C   -0.100113   0.152061
    27  C   -0.124482  -0.116417
    28  C   -0.124419  -0.116440
    29  C   -0.078646   0.192452
    30  H    0.207605  -0.006056
    31  H    0.207499  -0.006059
    32  H    0.169890   0.005147
    33  H    0.169895   0.005147
    34  H    0.173268  -0.008920
 Sum of Mulliken charges =   1.00000   1.00000

 Dipole moment (field-independent basis, Debye):
    X=             -0.0014    Y=              0.0029    Z=              0.0005  Tot=              0.0033
 Quadrupole moment (field-independent basis, Debye-Ang):
   XX=            -67.3391   YY=            -67.3444   ZZ=           -102.6588
   XY=              0.0017   XZ=              0.0004   YZ=             -0.0004

 Normal termination of Gaussian 16 at Sun Jan 17 20:04:29 2021.
