 Gaussian 16, Revision A.03,
 Gaussian 16:  EM64L-G16RevA.03 25-Dec-2016

 ------------------------------------------------------------
 #P LC-wHPBE/TZVP iop(3/107=0242700000, 3/108=0242700000) opt
 ------------------------------------------------------------

 ----------
 H19 C24 N1
 ----------
 Symbolic Z-matrix:
 Charge =  0 Multiplicity = 1

 SCF Done:  E(RLC-wHPBE) =  -980.086128941     A.U. after   19 cycles
 SCF Done:  E(RLC-wHPBE) =  -980.142028933     A.U. after   17 cycles
 SCF Done:  E(RLC-wHPBE) =  -980.168403778     A.U. after   17 cycles
 SCF Done:  E(RLC-wHPBE) =  -980.173209467     A.U. after   15 cycles
 SCF Done:  E(RLC-wHPBE) =  -980.174530926     A.U. after   16 cycles
 SCF Done:  E(RLC-wHPBE) =  -980.174238800     A.U. after   18 cycles
 SCF Done:  E(RLC-wHPBE) =  -980.177507805     A.U. after   16 cycles
 SCF Done:  E(RLC-wHPBE) =  -980.178287833     A.U. after   17 cycles
 SCF Done:  E(RLC-wHPBE) =  -980.178490794     A.U. after   15 cycles
 SCF Done:  E(RLC-wHPBE) =  -980.178522336     A.U. after   15 cycles
 SCF Done:  E(RLC-wHPBE) =  -980.178537778     A.U. after   14 cycles
 SCF Done:  E(RLC-wHPBE) =  -980.178545766     A.U. after   14 cycles
 SCF Done:  E(RLC-wHPBE) =  -980.178547817     A.U. after   21 cycles
 SCF Done:  E(RLC-wHPBE) =  -980.178549193     A.U. after   17 cycles
 SCF Done:  E(RLC-wHPBE) =  -980.178549795     A.U. after   10 cycles
 SCF Done:  E(RLC-wHPBE) =  -980.178549839     A.U. after    8 cycles
 SCF Done:  E(RLC-wHPBE) =  -980.178549853     A.U. after    7 cycles
 Optimization completed.
    -- Stationary point found.

                         Standard orientation:
 ---------------------------------------------------------------------
 Center     Atomic      Atomic             Coordinates (Angstroms)
 Number     Number       Type             X           Y           Z
 ---------------------------------------------------------------------
      1          6           0        6.129184    1.201496   -0.030856
      2          6           0        6.830271    0.000001    0.000182
      3          6           0        4.738958    1.200713   -0.032197
      4          6           0        6.129235   -1.201473    0.031153
      5          6           0        4.021751   -0.000032    0.000031
      6          6           0        4.738962   -1.200719    0.032361
      7          1           0        7.919539    0.000045    0.000190
      8          1           0        4.198073    2.145454   -0.081149
      9          1           0        6.668779   -2.147537    0.063412
     10          1           0        4.198148   -2.145504    0.081256
     11          6           0        2.536892   -0.000014   -0.000063
     12          6           0        1.813363   -0.924286   -0.760077
     13          6           0        1.813258    0.924290    0.759786
     14          6           0        0.426027   -0.922473   -0.771159
     15          6           0        0.425899    0.922498    0.770636
     16          6           0       -0.288344    0.000018   -0.000311
     17          1           0        2.347573   -1.638662   -1.386050
     18          1           0        2.347350    1.638674    1.385851
     19          1           0       -0.115370   -1.638494   -1.387158
     20          1           0       -0.115571    1.638578    1.386504
     21          1           0        6.668762    2.147543   -0.063006
     22          7           0       -1.704382   -0.000003   -0.000499
     23          6           0       -2.414266    1.227770    0.004035
     24          6           0       -3.559402    1.382015    0.792108
     25          6           0       -1.979956    2.301413   -0.780170
     26          6           0       -4.257371    2.583383    0.786193
     27          6           0       -2.673527    3.505213   -0.765830
     28          6           0       -3.817854    3.653503    0.012423
     29          1           0       -3.900046    0.551242    1.407814
     30          1           0       -1.092486    2.185578   -1.400082
     31          1           0       -5.147916    2.686607    1.405370
     32          1           0       -2.321511    4.331764   -1.382280
     33          1           0       -4.363183    4.595952    0.015664
     34          6           0       -2.414241   -1.227791   -0.004406
     35          6           0       -3.559682   -1.382189   -0.792032
     36          6           0       -1.979686   -2.301249    0.779869
     37          6           0       -4.257673   -2.583532   -0.785597
     38          6           0       -2.673287   -3.505060    0.766028
     39          6           0       -3.817885   -3.653507   -0.011769
     40          1           0       -3.900521   -0.551523   -1.407763
     41          1           0       -1.092008   -2.185299    1.399468
     42          1           0       -5.148466   -2.686887   -1.404399
     43          1           0       -2.321010   -4.331477    1.382521
     44          1           0       -4.363223   -4.595951   -0.014691
 ---------------------------------------------------------------------

 The electronic state is 1-A.
 Alpha  occ. eigenvalues --  -14.15547 -10.06762 -10.06760 -10.06744 -10.03605
 Alpha  occ. eigenvalues --  -10.03308 -10.02690 -10.02690 -10.02686 -10.02686
 Alpha  occ. eigenvalues --  -10.02686 -10.02683 -10.02513 -10.02510 -10.02433
 Alpha  occ. eigenvalues --  -10.02432 -10.02416 -10.02416 -10.02396 -10.02395
 Alpha  occ. eigenvalues --  -10.02388 -10.02388 -10.02381 -10.02212 -10.02212
 Alpha  occ. eigenvalues --   -1.03218  -0.93841  -0.92803  -0.92197  -0.90739
 Alpha  occ. eigenvalues --   -0.85003  -0.83249  -0.82115  -0.82026  -0.81660
 Alpha  occ. eigenvalues --   -0.81338  -0.80601  -0.77462  -0.71097  -0.70693
 Alpha  occ. eigenvalues --   -0.68991  -0.68194  -0.67857  -0.66696  -0.66198
 Alpha  occ. eigenvalues --   -0.64544  -0.61808  -0.61636  -0.60159  -0.57384
 Alpha  occ. eigenvalues --   -0.55940  -0.55109  -0.54986  -0.53516  -0.52922
 Alpha  occ. eigenvalues --   -0.52010  -0.51756  -0.51538  -0.50821  -0.50544
 Alpha  occ. eigenvalues --   -0.50073  -0.49848  -0.49692  -0.49309  -0.46700
 Alpha  occ. eigenvalues --   -0.46340  -0.46232  -0.45784  -0.45476  -0.43821
 Alpha  occ. eigenvalues --   -0.43219  -0.42835  -0.42004  -0.41751  -0.41206
 Alpha  occ. eigenvalues --   -0.41007  -0.39243  -0.35840  -0.34513  -0.34495
 Alpha  occ. eigenvalues --   -0.33570  -0.33411  -0.33274  -0.31623  -0.25821
 Alpha virt. eigenvalues --    0.02204   0.03465   0.03858   0.05167   0.05932
 Alpha virt. eigenvalues --    0.05995   0.06497   0.09577   0.11518   0.12261
 Alpha virt. eigenvalues --    0.12437   0.13203   0.14107   0.14687   0.15173

 Mulliken charges:
               1
     1  C   -0.092744
     2  C   -0.131031
     3  C   -0.143742
     4  C   -0.092741
     5  C    0.003492
     6  C   -0.143726
     7  H    0.111980
     8  H    0.135706
     9  H    0.109449
    10  H    0.135700
    11  C    0.030369
    12  C   -0.159261
    13  C   -0.159267
    14  C   -0.127575
    15  C   -0.127450
    16  C   -0.038766
    17  H    0.133351
    18  H    0.133350
    19  H    0.154446
    20  H    0.154454
    21  H    0.109450
    22  N   -0.026967
    23  C   -0.054474
    24  C   -0.118514
    25  C   -0.114431
    26  C   -0.117178
    27  C   -0.116912
    28  C   -0.110557
    29  H    0.157285
    30  H    0.156082
    31  H    0.111907
    32  H    0.111812
    33  H    0.110744
    34  C   -0.054444
    35  C   -0.118642
    36  C   -0.114333
    37  C   -0.117173
    38  C   -0.116937
    39  C   -0.110555
    40  H    0.157283
    41  H    0.156100
    42  H    0.111906
    43  H    0.111809
    44  H    0.110743
 Sum of Mulliken charges =  -0.00000

 Dipole moment (field-independent basis, Debye):
    X=             -0.2185    Y=              0.0002    Z=              0.0003  Tot=              0.2185
 Quadrupole moment (field-independent basis, Debye-Ang):
   XX=           -133.9170   YY=           -132.7461   ZZ=           -148.2751
   XY=             -0.0006   XZ=             -0.0010   YZ=             -0.4497

 Normal termination of Gaussian 16 at Sun Jan 17 11:40:27 2021.
