 Gaussian 16, Revision A.03,
 Gaussian 16:  EM64L-G16RevA.03 25-Dec-2016

 ------------------------------------------------------------
 #P LC-wHPBE/TZVP iop(3/107=0117500000, 3/108=0117500000) opt
 ------------------------------------------------------------

 -------
 H10 C12
 -------
 Symbolic Z-matrix:
 Charge =  0 Multiplicity = 1

 SCF Done:  E(RLC-wHPBE) =  -462.916766014     A.U. after   19 cycles
 SCF Done:  E(RLC-wHPBE) =  -462.939363788     A.U. after   23 cycles
 SCF Done:  E(RLC-wHPBE) =  -462.943217037     A.U. after   24 cycles
 SCF Done:  E(RLC-wHPBE) =  -462.943540708     A.U. after   15 cycles
 SCF Done:  E(RLC-wHPBE) =  -462.944576972     A.U. after   18 cycles
 SCF Done:  E(RLC-wHPBE) =  -462.864901971     A.U. after   17 cycles
 SCF Done:  E(RLC-wHPBE) =  -462.942742058     A.U. after   17 cycles
 SCF Done:  E(RLC-wHPBE) =  -462.945803840     A.U. after   15 cycles
 SCF Done:  E(RLC-wHPBE) =  -462.944792266     A.U. after   18 cycles
 SCF Done:  E(RLC-wHPBE) =  -462.942903250     A.U. after   18 cycles
 SCF Done:  E(RLC-wHPBE) =  -462.942133799     A.U. after   17 cycles
 SCF Done:  E(RLC-wHPBE) =  -462.945866895     A.U. after   15 cycles
 SCF Done:  E(RLC-wHPBE) =  -462.946272424     A.U. after   22 cycles
 SCF Done:  E(RLC-wHPBE) =  -462.946719763     A.U. after   18 cycles
 SCF Done:  E(RLC-wHPBE) =  -462.946773844     A.U. after   13 cycles
 SCF Done:  E(RLC-wHPBE) =  -462.946776789     A.U. after    9 cycles
 SCF Done:  E(RLC-wHPBE) =  -462.946776946     A.U. after    7 cycles
 Optimization completed.
    -- Stationary point found.

                         Standard orientation:
 ---------------------------------------------------------------------
 Center     Atomic      Atomic             Coordinates (Angstroms)
 Number     Number       Type             X           Y           Z
 ---------------------------------------------------------------------
      1          6           0       -2.858500    1.132993    0.413690
      2          6           0       -3.561927   -0.000084   -0.000146
      3          6           0       -1.463685    1.132747    0.413534
      4          6           0       -2.858269   -1.133176   -0.413741
      5          6           0       -0.742381    0.000123    0.000091
      6          6           0       -1.463491   -1.132675   -0.413489
      7          1           0       -4.653174   -0.000160   -0.000261
      8          1           0       -0.922222    2.014213    0.762301
      9          1           0       -3.398792   -2.020986   -0.747134
     10          1           0       -0.921754   -2.014027   -0.762095
     11          6           0        0.742385    0.000142    0.000197
     12          6           0        1.463539   -1.132637    0.413582
     13          6           0        1.463636    1.132765   -0.413477
     14          6           0        2.858357   -1.133114    0.413660
     15          6           0        2.858412    1.133073   -0.413706
     16          6           0        3.561931   -0.000095   -0.000087
     17          1           0        0.921935   -2.014039    0.762261
     18          1           0        0.922017    2.014128   -0.762265
     19          1           0        3.398826   -2.021000    0.746938
     20          1           0        3.399026    2.020805   -0.747168
     21          1           0        4.653184   -0.000117   -0.000198
     22          1           0       -3.399078    2.020813    0.746974
 ---------------------------------------------------------------------

 The electronic state is 1-A.
 Alpha  occ. eigenvalues --   -9.96834  -9.96821  -9.95747  -9.95746  -9.95743
 Alpha  occ. eigenvalues --   -9.95743  -9.95686  -9.95685  -9.95684  -9.95684
 Alpha  occ. eigenvalues --   -9.95644  -9.95644  -0.86194  -0.84096  -0.77520
 Alpha  occ. eigenvalues --   -0.74883  -0.74173  -0.72108  -0.63183  -0.62638
 Alpha  occ. eigenvalues --   -0.60022  -0.58803  -0.54839  -0.51530  -0.48496
 Alpha  occ. eigenvalues --   -0.48307  -0.45798  -0.45788  -0.44337  -0.44010
 Alpha  occ. eigenvalues --   -0.43681  -0.40665  -0.39121  -0.38737  -0.37341
 Alpha  occ. eigenvalues --   -0.36033  -0.35829  -0.31519  -0.29424  -0.29416
 Alpha  occ. eigenvalues --   -0.26906
 Alpha virt. eigenvalues --   -0.00816   0.01311   0.01564   0.04290   0.08581
 Alpha virt. eigenvalues --    0.09093   0.10772   0.12141   0.12544   0.14091
 Alpha virt. eigenvalues --    0.14442   0.14662   0.15434   0.16205   0.17320

 Mulliken charges:
               1
     1  C   -0.092003
     2  C   -0.114731
     3  C   -0.127528
     4  C   -0.092031
     5  C   -0.002386
     6  C   -0.127558
     7  H    0.103598
     8  H    0.124975
     9  H    0.101333
    10  H    0.124997
    11  C   -0.002407
    12  C   -0.127515
    13  C   -0.127542
    14  C   -0.092037
    15  C   -0.092017
    16  C   -0.114723
    17  H    0.124983
    18  H    0.124995
    19  H    0.101333
    20  H    0.101332
    21  H    0.103598
    22  H    0.101333
 Sum of Mulliken charges =  -0.00000

 Dipole moment (field-independent basis, Debye):
    X=             -0.0000    Y=             -0.0001    Z=             -0.0003  Tot=              0.0003
 Quadrupole moment (field-independent basis, Debye-Ang):
   XX=            -62.2066   YY=            -63.9161   ZZ=            -75.3161
   XY=             -0.0005   XZ=             -0.0005   YZ=             -0.0002

 1\1\GINC-CASCADEB028\FOpt\RLC-wHPBE\TZVP\C12H10\RDU230\17-Jan-2021\0\\
 #P LC-wHPBE/TZVP iop(3/107=0117500000, 3/108=0117500000) opt\\H10 C12\
 \0,1\C,-0.0092119914,0.4723302793,-1.4295492825\C,-1.1932301848,0.0861
 508212,-0.7979639962\C,1.2001656509,0.4394221241,-0.7354076594\C,-1.15
 71055809,-0.3328292319,0.5336683078\C,1.2518274638,0.0201759741,0.6045
 979844\C,0.0526217431,-0.3653344536,1.2271445288\H,-2.1395380032,0.111
 6617326,-1.3407996906\H,2.1169415577,0.7668001096,-1.2295224884\H,-2.0
 758346663,-0.6447985697,1.0338037753\H,0.0751957603,-0.7179894092,2.26

 Normal termination of Gaussian 16 at Sun Jan 17 09:35:29 2021.
