 Gaussian 16, Revision A.03,
 Gaussian 16:  EM64L-G16RevA.03 25-Dec-2016

 ----------------------------------------------------------------------
 #P LC-wHPBE/TZVP iop(3/107=0135500000, 3/108=0135500000) scf=(conver=6
 ,fermi,ndamp=35,noincfock,novaracc,vshift=500,xqc)
 ----------------------------------------------------------------------

 -------------
 H28 C36 N2 O4
 -------------
 Symbolic Z-matrix:
 Charge =  0 Multiplicity = 1

                         Standard orientation:
 ---------------------------------------------------------------------
 Center     Atomic      Atomic             Coordinates (Angstroms)
 Number     Number       Type             X           Y           Z
 ---------------------------------------------------------------------
      1          6           0        2.858499   -1.142103    0.374244
      2          6           0        3.579312    0.001087   -0.003359
      3          6           0        1.469111   -1.138314    0.362939
      4          6           0        2.858875    1.143435   -0.384264
      5          6           0        0.739097   -0.000512   -0.009817
      6          6           0        1.469477    1.138129   -0.379362
      7          1           0        0.937192   -2.033473    0.688815
      8          1           0        3.397761    2.037798   -0.696269
      9          1           0        0.938071    2.032504   -0.708142
     10          6           0       -0.742883   -0.001384   -0.012974
     11          6           0       -1.474511    1.130858    0.372988
     12          6           0       -1.471490   -1.134716   -0.402503
     13          6           0       -2.864100    1.134318    0.378218
     14          6           0       -2.860735   -1.140009   -0.413286
     15          6           0       -3.582937   -0.003346   -0.018716
     16          1           0       -0.944110    2.021230    0.714069
     17          1           0       -0.938347   -2.023708   -0.742945
     18          1           0       -3.404263    2.023625    0.702274
     19          1           0       -3.398798   -2.029064   -0.741639
     20          1           0        3.397024   -2.035914    0.688457
     21          7           0       -4.995311   -0.005703   -0.022721
     22          6           0       -5.713915   -1.185510    0.315496
     23          6           0       -6.824749   -1.586223   -0.439679
     24          6           0       -5.336499   -1.964565    1.414395
     25          6           0       -7.543368   -2.726588   -0.103607
     26          6           0       -6.037549   -3.122582    1.739703
     27          6           0       -7.148838   -3.505710    0.986012
     28          1           0       -7.129554   -0.987536   -1.298124
     29          1           0       -4.477812   -1.664402    2.014832
     30          1           0       -8.408278   -3.036049   -0.689802
     31          1           0       -5.724570   -3.720924    2.598980
     32          6           0       -5.717056    1.178925   -0.336296
     33          6           0       -6.821807    1.565845    0.429047
     34          6           0       -5.346761    1.975943   -1.428789
     35          6           0       -7.543924    2.712298    0.107280
     36          6           0       -6.047800    3.134194   -1.738027
     37          6           0       -7.155651    3.506391   -0.973222
     38          1           0       -7.124426    0.956025    1.280239
     39          1           0       -4.491517    1.682511   -2.037555
     40          1           0       -8.407549    2.995534    0.714075
     41          1           0       -5.757368    3.754511   -2.585554
     42          7           0        4.991423    0.001999   -0.000060
     43          6           0        5.710552    1.183762    0.330631
     44          6           0        6.812654    1.584277   -0.431608
     45          6           0        5.340603    1.964026    1.435102
     46          6           0        7.532572    2.727778   -0.095183
     47          6           0        6.039551    3.119564    1.759528
     48          6           0        7.144632    3.505373    0.997606
     49          1           0        7.113605    0.987752   -1.292811
     50          1           0        4.486562    1.660323    2.040543
     51          1           0        8.393358    3.022713   -0.700462
     52          1           0        5.749024    3.727528    2.615933
     53          6           0        5.713955   -1.178690   -0.326778
     54          6           0        6.814458   -1.575861    0.439552
     55          6           0        5.349314   -1.961286   -1.431414
     56          6           0        7.537888   -2.718318    0.107058
     57          6           0        6.051756   -3.115796   -1.751909
     58          6           0        7.155153   -3.498257   -0.985865
     59          1           0        7.111509   -0.977436    1.300789
     60          1           0        4.496830   -1.660119   -2.040298
     61          1           0        8.397429   -3.010471    0.715458
     62          1           0        5.765438   -3.725350   -2.608604
     63          8           0        7.820509   -4.641023   -1.355507
     64          1           0        8.555246   -4.788670   -0.739309
     65          8           0        7.806379    4.648952    1.371018
     66          1           0        8.541702    4.800061    0.756350
     67          8           0       -7.887404   -4.628973    1.265636
     68          1           0       -7.503413   -5.071476    2.038990
     69          8           0       -7.819547    4.653451   -1.332021
     70          1           0       -8.560354    4.790553   -0.720672
 ---------------------------------------------------------------------

 SCF Done:  E(RLC-wHPBE) =  -1797.89135360     A.U. after   14 cycles

 The electronic state is 1-A.
 Alpha  occ. eigenvalues --  -18.86109 -18.86104 -18.86051 -18.85983 -14.09397
 Alpha  occ. eigenvalues --  -14.09343 -10.02417 -10.02416 -10.02358 -10.02291
 Alpha  occ. eigenvalues --  -10.00088 -10.00062 -10.00029 -10.00025  -9.99973
 Alpha  occ. eigenvalues --   -9.99933  -9.97039  -9.97034  -9.96982  -9.96914
 Alpha  occ. eigenvalues --   -9.96864  -9.96861  -9.96799  -9.96747  -9.96698
 Alpha  occ. eigenvalues --   -9.96696  -9.96644  -9.96584  -9.96513  -9.96498
 Alpha  occ. eigenvalues --   -9.96411  -9.96410  -9.96354  -9.96295  -9.95969
 Alpha  occ. eigenvalues --   -9.95961  -9.95956  -9.95954  -9.95754  -9.95748
 Alpha  occ. eigenvalues --   -9.95746  -9.95739  -1.05378  -1.05375  -1.05319
 Alpha  occ. eigenvalues --   -1.05253  -0.96320  -0.96263  -0.86660  -0.86235
 Alpha  occ. eigenvalues --   -0.86154  -0.85640  -0.84649  -0.83545  -0.78294
 Alpha  occ. eigenvalues --   -0.76651  -0.76602  -0.76485  -0.76112  -0.76047
 Alpha  occ. eigenvalues --   -0.75868  -0.75121  -0.74750  -0.74518  -0.72489
 Alpha  occ. eigenvalues --   -0.70505  -0.66288  -0.65608  -0.65046  -0.64821
 Alpha  occ. eigenvalues --   -0.64366  -0.63699  -0.63275  -0.62651  -0.61608
 Alpha  occ. eigenvalues --   -0.60810  -0.60174  -0.59018  -0.57483  -0.57410
 Alpha  occ. eigenvalues --   -0.57375  -0.57330  -0.56242  -0.55706  -0.55234
 Alpha  occ. eigenvalues --   -0.54844  -0.52508  -0.51164  -0.50953  -0.49798
 Alpha  occ. eigenvalues --   -0.49474  -0.49134  -0.47483  -0.47302  -0.47236
 Alpha  occ. eigenvalues --   -0.47185  -0.46685  -0.46572  -0.46341  -0.45568
 Alpha  occ. eigenvalues --   -0.45530  -0.45455  -0.45314  -0.44984  -0.44812
 Alpha  occ. eigenvalues --   -0.44668  -0.44389  -0.44263  -0.44159  -0.44075
 Alpha  occ. eigenvalues --   -0.43816  -0.43026  -0.42832  -0.42547  -0.41488
 Alpha  occ. eigenvalues --   -0.41416  -0.40942  -0.40697  -0.40407  -0.40269
 Alpha  occ. eigenvalues --   -0.38722  -0.38425  -0.38152  -0.38064  -0.37786
 Alpha  occ. eigenvalues --   -0.37585  -0.37471  -0.37271  -0.37204  -0.37069
 Alpha  occ. eigenvalues --   -0.36352  -0.34162  -0.32506  -0.30947  -0.30885
 Alpha  occ. eigenvalues --   -0.30435  -0.30218  -0.29566  -0.29489  -0.29436
 Alpha  occ. eigenvalues --   -0.27776  -0.27657  -0.27500  -0.22563  -0.21100
 Alpha virt. eigenvalues --    0.00229   0.00729   0.00818   0.02429   0.02518
 Alpha virt. eigenvalues --    0.02666   0.02766   0.03200   0.03627   0.03640
 Alpha virt. eigenvalues --    0.06101   0.06672   0.06729   0.06755   0.06828

 Mulliken charges:
               1
     1  C   -0.147750
     2  C    0.018920
     3  C   -0.146258
     4  C   -0.147690
     5  C    0.030490
     6  C   -0.146239
     7  H    0.115514
     8  H    0.140428
     9  H    0.117175
    10  C    0.030797
    11  C   -0.146371
    12  C   -0.145877
    13  C   -0.145094
    14  C   -0.148946
    15  C    0.014206
    16  H    0.116864
    17  H    0.116995
    18  H    0.140461
    19  H    0.139515
    20  H    0.140141
    21  N    0.009512
    22  C   -0.112277
    23  C   -0.060206
    24  C   -0.085373
    25  C   -0.197544
    26  C   -0.170152
    27  C    0.119139
    28  H    0.130518
    29  H    0.139006
    30  H    0.114198
    31  H    0.103675
    32  C   -0.106425
    33  C   -0.081080
    34  C   -0.069084
    35  C   -0.167501
    36  C   -0.194361
    37  C    0.116100
    38  H    0.132426
    39  H    0.137531
    40  H    0.104177
    41  H    0.114447
    42  N    0.010366
    43  C   -0.115293
    44  C   -0.080477
    45  C   -0.063490
    46  C   -0.168368
    47  C   -0.195350
    48  C    0.116734
    49  H    0.131827
    50  H    0.137196
    51  H    0.104413
    52  H    0.114423
    53  C   -0.113650
    54  C   -0.081156
    55  C   -0.064699
    56  C   -0.168352
    57  C   -0.195280
    58  C    0.116539
    59  H    0.131831
    60  H    0.137730
    61  H    0.104272
    62  H    0.114615
    63  O   -0.242799
    64  H    0.268399
    65  O   -0.242778
    66  H    0.268476
    67  O   -0.243129
    68  H    0.268477
    69  O   -0.242925
    70  H    0.268437
 Sum of Mulliken charges =  -0.00000

 Dipole moment (field-independent basis, Debye):
    X=              1.6675    Y=             -0.4182    Z=              2.0344  Tot=              2.6635
 Quadrupole moment (field-independent basis, Debye-Ang):
   XX=           -189.8717   YY=           -232.4060   ZZ=           -242.0959
   XY=             -5.2152   XZ=            -14.5921   YZ=            -11.9668

 Normal termination of Gaussian 16 at Mon Jan 18 08:09:47 2021.
