 Gaussian 16, Revision A.03,
 Gaussian 16:  EM64L-G16RevA.03 25-Dec-2016

 ----------------------------------------------------------------------
 #P LC-wHPBE/TZVP iop(3/107=0176300000, 3/108=0176300000) scf=(conver=6
 ,fermi,ndamp=35,noincfock,novaracc,vshift=500,xqc)
 ----------------------------------------------------------------------

 -------------
 H28 C36 N2 O4
 -------------
 Symbolic Z-matrix:
 Charge =  0 Multiplicity = 1

                         Standard orientation:
 ---------------------------------------------------------------------
 Center     Atomic      Atomic             Coordinates (Angstroms)
 Number     Number       Type             X           Y           Z
 ---------------------------------------------------------------------
      1          6           0        2.858499   -1.142103    0.374244
      2          6           0        3.579312    0.001087   -0.003359
      3          6           0        1.469111   -1.138314    0.362939
      4          6           0        2.858875    1.143435   -0.384264
      5          6           0        0.739097   -0.000512   -0.009817
      6          6           0        1.469477    1.138129   -0.379362
      7          1           0        0.937192   -2.033473    0.688815
      8          1           0        3.397761    2.037798   -0.696269
      9          1           0        0.938071    2.032504   -0.708142
     10          6           0       -0.742883   -0.001384   -0.012974
     11          6           0       -1.474511    1.130858    0.372988
     12          6           0       -1.471490   -1.134716   -0.402503
     13          6           0       -2.864100    1.134318    0.378218
     14          6           0       -2.860735   -1.140009   -0.413286
     15          6           0       -3.582937   -0.003346   -0.018716
     16          1           0       -0.944110    2.021230    0.714069
     17          1           0       -0.938347   -2.023708   -0.742945
     18          1           0       -3.404263    2.023625    0.702274
     19          1           0       -3.398798   -2.029064   -0.741639
     20          1           0        3.397024   -2.035914    0.688457
     21          7           0       -4.995311   -0.005703   -0.022721
     22          6           0       -5.713915   -1.185510    0.315496
     23          6           0       -6.824749   -1.586223   -0.439679
     24          6           0       -5.336499   -1.964565    1.414395
     25          6           0       -7.543368   -2.726588   -0.103607
     26          6           0       -6.037549   -3.122582    1.739703
     27          6           0       -7.148838   -3.505710    0.986012
     28          1           0       -7.129554   -0.987536   -1.298124
     29          1           0       -4.477812   -1.664402    2.014832
     30          1           0       -8.408278   -3.036049   -0.689802
     31          1           0       -5.724570   -3.720924    2.598980
     32          6           0       -5.717056    1.178925   -0.336296
     33          6           0       -6.821807    1.565845    0.429047
     34          6           0       -5.346761    1.975943   -1.428789
     35          6           0       -7.543924    2.712298    0.107280
     36          6           0       -6.047800    3.134194   -1.738027
     37          6           0       -7.155651    3.506391   -0.973222
     38          1           0       -7.124426    0.956025    1.280239
     39          1           0       -4.491517    1.682511   -2.037555
     40          1           0       -8.407549    2.995534    0.714075
     41          1           0       -5.757368    3.754511   -2.585554
     42          7           0        4.991423    0.001999   -0.000060
     43          6           0        5.710552    1.183762    0.330631
     44          6           0        6.812654    1.584277   -0.431608
     45          6           0        5.340603    1.964026    1.435102
     46          6           0        7.532572    2.727778   -0.095183
     47          6           0        6.039551    3.119564    1.759528
     48          6           0        7.144632    3.505373    0.997606
     49          1           0        7.113605    0.987752   -1.292811
     50          1           0        4.486562    1.660323    2.040543
     51          1           0        8.393358    3.022713   -0.700462
     52          1           0        5.749024    3.727528    2.615933
     53          6           0        5.713955   -1.178690   -0.326778
     54          6           0        6.814458   -1.575861    0.439552
     55          6           0        5.349314   -1.961286   -1.431414
     56          6           0        7.537888   -2.718318    0.107058
     57          6           0        6.051756   -3.115796   -1.751909
     58          6           0        7.155153   -3.498257   -0.985865
     59          1           0        7.111509   -0.977436    1.300789
     60          1           0        4.496830   -1.660119   -2.040298
     61          1           0        8.397429   -3.010471    0.715458
     62          1           0        5.765438   -3.725350   -2.608604
     63          8           0        7.820509   -4.641023   -1.355507
     64          1           0        8.555246   -4.788670   -0.739309
     65          8           0        7.806379    4.648952    1.371018
     66          1           0        8.541702    4.800061    0.756350
     67          8           0       -7.887404   -4.628973    1.265636
     68          1           0       -7.503413   -5.071476    2.038990
     69          8           0       -7.819547    4.653451   -1.332021
     70          1           0       -8.560354    4.790553   -0.720672
 ---------------------------------------------------------------------

 SCF Done:  E(RLC-wHPBE) =  -1797.98307600     A.U. after   14 cycles

 The electronic state is 1-A.
 Alpha  occ. eigenvalues --  -18.88299 -18.88294 -18.88241 -18.88171 -14.11551
 Alpha  occ. eigenvalues --  -14.11496 -10.04770 -10.04769 -10.04711 -10.04642
 Alpha  occ. eigenvalues --  -10.02460 -10.02434 -10.02367 -10.02362 -10.02310
 Alpha  occ. eigenvalues --  -10.02269  -9.99353  -9.99348  -9.99297  -9.99227
 Alpha  occ. eigenvalues --   -9.99190  -9.99187  -9.99126  -9.99072  -9.99022
 Alpha  occ. eigenvalues --   -9.99021  -9.98967  -9.98907  -9.98863  -9.98849
 Alpha  occ. eigenvalues --   -9.98719  -9.98718  -9.98660  -9.98601  -9.98317
 Alpha  occ. eigenvalues --   -9.98310  -9.98304  -9.98303  -9.98076  -9.98070
 Alpha  occ. eigenvalues --   -9.98067  -9.98062  -1.07684  -1.07680  -1.07625
 Alpha  occ. eigenvalues --   -1.07557  -0.98700  -0.98642  -0.89129  -0.88672
 Alpha  occ. eigenvalues --   -0.88591  -0.88082  -0.87073  -0.85968  -0.80690
 Alpha  occ. eigenvalues --   -0.79017  -0.78965  -0.78861  -0.78488  -0.78408
 Alpha  occ. eigenvalues --   -0.78230  -0.77500  -0.77089  -0.76893  -0.74788
 Alpha  occ. eigenvalues --   -0.72783  -0.68516  -0.67812  -0.67229  -0.67039
 Alpha  occ. eigenvalues --   -0.66602  -0.65913  -0.65494  -0.64868  -0.63782
 Alpha  occ. eigenvalues --   -0.63016  -0.62321  -0.61175  -0.59601  -0.59507
 Alpha  occ. eigenvalues --   -0.59464  -0.59430  -0.58397  -0.57799  -0.57276
 Alpha  occ. eigenvalues --   -0.56862  -0.54590  -0.53223  -0.53012  -0.51823
 Alpha  occ. eigenvalues --   -0.51494  -0.51171  -0.49479  -0.49291  -0.49223
 Alpha  occ. eigenvalues --   -0.49174  -0.48686  -0.48576  -0.48345  -0.47505
 Alpha  occ. eigenvalues --   -0.47487  -0.47403  -0.47253  -0.46935  -0.46764
 Alpha  occ. eigenvalues --   -0.46656  -0.46444  -0.46330  -0.46208  -0.46109
 Alpha  occ. eigenvalues --   -0.45804  -0.44902  -0.44734  -0.44435  -0.43401
 Alpha  occ. eigenvalues --   -0.43291  -0.42922  -0.42559  -0.42285  -0.42220
 Alpha  occ. eigenvalues --   -0.40646  -0.40374  -0.40095  -0.40013  -0.39613
 Alpha  occ. eigenvalues --   -0.39398  -0.39284  -0.39053  -0.38988  -0.38838
 Alpha  occ. eigenvalues --   -0.38159  -0.35955  -0.34308  -0.32542  -0.32481
 Alpha  occ. eigenvalues --   -0.32030  -0.31788  -0.31159  -0.31056  -0.31021
 Alpha  occ. eigenvalues --   -0.29287  -0.29165  -0.28953  -0.23832  -0.22316
 Alpha virt. eigenvalues --    0.01308   0.01961   0.02049   0.03648   0.03738
 Alpha virt. eigenvalues --    0.03989   0.04091   0.04508   0.04872   0.04934
 Alpha virt. eigenvalues --    0.07430   0.07992   0.08049   0.08074   0.08149

 Mulliken charges:
               1
     1  C   -0.148203
     2  C    0.017657
     3  C   -0.150364
     4  C   -0.148146
     5  C    0.029851
     6  C   -0.150339
     7  H    0.118846
     8  H    0.144394
     9  H    0.120500
    10  C    0.030172
    11  C   -0.150515
    12  C   -0.150017
    13  C   -0.145526
    14  C   -0.149269
    15  C    0.012859
    16  H    0.120195
    17  H    0.120326
    18  H    0.144433
    19  H    0.143485
    20  H    0.144109
    21  N   -0.000923
    22  C   -0.112944
    23  C   -0.059414
    24  C   -0.084547
    25  C   -0.202465
    26  C   -0.175181
    27  C    0.118845
    28  H    0.134212
    29  H    0.142651
    30  H    0.116760
    31  H    0.106319
    32  C   -0.106972
    33  C   -0.081448
    34  C   -0.067329
    35  C   -0.172454
    36  C   -0.199216
    37  C    0.115736
    38  H    0.135972
    39  H    0.141299
    40  H    0.106861
    41  H    0.116969
    42  N   -0.000057
    43  C   -0.115955
    44  C   -0.080671
    45  C   -0.061654
    46  C   -0.173377
    47  C   -0.200296
    48  C    0.116433
    49  H    0.135349
    50  H    0.140975
    51  H    0.107102
    52  H    0.116950
    53  C   -0.114312
    54  C   -0.081374
    55  C   -0.062865
    56  C   -0.173353
    57  C   -0.200216
    58  C    0.116232
    59  H    0.135360
    60  H    0.141512
    61  H    0.106962
    62  H    0.117143
    63  O   -0.242609
    64  H    0.268407
    65  O   -0.242590
    66  H    0.268484
    67  O   -0.242930
    68  H    0.268476
    69  O   -0.242740
    70  H    0.268443
 Sum of Mulliken charges =  -0.00000

 Dipole moment (field-independent basis, Debye):
    X=              1.6784    Y=             -0.4214    Z=              2.0466  Tot=              2.6802
 Quadrupole moment (field-independent basis, Debye-Ang):
   XX=           -190.4720   YY=           -232.7025   ZZ=           -241.8045
   XY=             -5.2388   XZ=            -14.6784   YZ=            -12.0322

 Normal termination of Gaussian 16 at Mon Jan 18 12:41:16 2021.
