 Gaussian 16, Revision A.03,
 Gaussian 16:  EM64L-G16RevA.03 25-Dec-2016

 ----------------------------------------------------------------------
 #P LC-wHPBE/TZVP iop(3/107=0176600000, 3/108=0176600000) scf=(conver=6
 ,fermi,ndamp=35,noincfock,novaracc,vshift=500,xqc)
 ----------------------------------------------------------------------

 -------------
 H28 C36 N2 O4
 -------------
 Symbolic Z-matrix:
 Charge =  0 Multiplicity = 1

                         Standard orientation:
 ---------------------------------------------------------------------
 Center     Atomic      Atomic             Coordinates (Angstroms)
 Number     Number       Type             X           Y           Z
 ---------------------------------------------------------------------
      1          6           0        2.858499   -1.142103    0.374244
      2          6           0        3.579312    0.001087   -0.003359
      3          6           0        1.469111   -1.138314    0.362939
      4          6           0        2.858875    1.143435   -0.384264
      5          6           0        0.739097   -0.000512   -0.009817
      6          6           0        1.469477    1.138129   -0.379362
      7          1           0        0.937192   -2.033473    0.688815
      8          1           0        3.397761    2.037798   -0.696269
      9          1           0        0.938071    2.032504   -0.708142
     10          6           0       -0.742883   -0.001384   -0.012974
     11          6           0       -1.474511    1.130858    0.372988
     12          6           0       -1.471490   -1.134716   -0.402503
     13          6           0       -2.864100    1.134318    0.378218
     14          6           0       -2.860735   -1.140009   -0.413286
     15          6           0       -3.582937   -0.003346   -0.018716
     16          1           0       -0.944110    2.021230    0.714069
     17          1           0       -0.938347   -2.023708   -0.742945
     18          1           0       -3.404263    2.023625    0.702274
     19          1           0       -3.398798   -2.029064   -0.741639
     20          1           0        3.397024   -2.035914    0.688457
     21          7           0       -4.995311   -0.005703   -0.022721
     22          6           0       -5.713915   -1.185510    0.315496
     23          6           0       -6.824749   -1.586223   -0.439679
     24          6           0       -5.336499   -1.964565    1.414395
     25          6           0       -7.543368   -2.726588   -0.103607
     26          6           0       -6.037549   -3.122582    1.739703
     27          6           0       -7.148838   -3.505710    0.986012
     28          1           0       -7.129554   -0.987536   -1.298124
     29          1           0       -4.477812   -1.664402    2.014832
     30          1           0       -8.408278   -3.036049   -0.689802
     31          1           0       -5.724570   -3.720924    2.598980
     32          6           0       -5.717056    1.178925   -0.336296
     33          6           0       -6.821807    1.565845    0.429047
     34          6           0       -5.346761    1.975943   -1.428789
     35          6           0       -7.543924    2.712298    0.107280
     36          6           0       -6.047800    3.134194   -1.738027
     37          6           0       -7.155651    3.506391   -0.973222
     38          1           0       -7.124426    0.956025    1.280239
     39          1           0       -4.491517    1.682511   -2.037555
     40          1           0       -8.407549    2.995534    0.714075
     41          1           0       -5.757368    3.754511   -2.585554
     42          7           0        4.991423    0.001999   -0.000060
     43          6           0        5.710552    1.183762    0.330631
     44          6           0        6.812654    1.584277   -0.431608
     45          6           0        5.340603    1.964026    1.435102
     46          6           0        7.532572    2.727778   -0.095183
     47          6           0        6.039551    3.119564    1.759528
     48          6           0        7.144632    3.505373    0.997606
     49          1           0        7.113605    0.987752   -1.292811
     50          1           0        4.486562    1.660323    2.040543
     51          1           0        8.393358    3.022713   -0.700462
     52          1           0        5.749024    3.727528    2.615933
     53          6           0        5.713955   -1.178690   -0.326778
     54          6           0        6.814458   -1.575861    0.439552
     55          6           0        5.349314   -1.961286   -1.431414
     56          6           0        7.537888   -2.718318    0.107058
     57          6           0        6.051756   -3.115796   -1.751909
     58          6           0        7.155153   -3.498257   -0.985865
     59          1           0        7.111509   -0.977436    1.300789
     60          1           0        4.496830   -1.660119   -2.040298
     61          1           0        8.397429   -3.010471    0.715458
     62          1           0        5.765438   -3.725350   -2.608604
     63          8           0        7.820509   -4.641023   -1.355507
     64          1           0        8.555246   -4.788670   -0.739309
     65          8           0        7.806379    4.648952    1.371018
     66          1           0        8.541702    4.800061    0.756350
     67          8           0       -7.887404   -4.628973    1.265636
     68          1           0       -7.503413   -5.071476    2.038990
     69          8           0       -7.819547    4.653451   -1.332021
     70          1           0       -8.560354    4.790553   -0.720672
 ---------------------------------------------------------------------

 SCF Done:  E(RLC-wHPBE) =  -1797.98375469     A.U. after   14 cycles

 The electronic state is 1-A.
 Alpha  occ. eigenvalues --  -18.88315 -18.88310 -18.88257 -18.88187 -14.11567
 Alpha  occ. eigenvalues --  -14.11512 -10.04788 -10.04787 -10.04728 -10.04659
 Alpha  occ. eigenvalues --  -10.02478 -10.02451 -10.02384 -10.02380 -10.02327
 Alpha  occ. eigenvalues --  -10.02287  -9.99370  -9.99365  -9.99314  -9.99244
 Alpha  occ. eigenvalues --   -9.99207  -9.99204  -9.99143  -9.99089  -9.99039
 Alpha  occ. eigenvalues --   -9.99038  -9.98984  -9.98924  -9.98880  -9.98866
 Alpha  occ. eigenvalues --   -9.98736  -9.98735  -9.98677  -9.98618  -9.98335
 Alpha  occ. eigenvalues --   -9.98328  -9.98322  -9.98320  -9.98093  -9.98087
 Alpha  occ. eigenvalues --   -9.98084  -9.98079  -1.07701  -1.07697  -1.07642
 Alpha  occ. eigenvalues --   -1.07573  -0.98717  -0.98659  -0.89147  -0.88690
 Alpha  occ. eigenvalues --   -0.88609  -0.88100  -0.87091  -0.85986  -0.80708
 Alpha  occ. eigenvalues --   -0.79034  -0.78982  -0.78878  -0.78505  -0.78425
 Alpha  occ. eigenvalues --   -0.78247  -0.77517  -0.77106  -0.76910  -0.74805
 Alpha  occ. eigenvalues --   -0.72800  -0.68532  -0.67828  -0.67245  -0.67055
 Alpha  occ. eigenvalues --   -0.66618  -0.65929  -0.65510  -0.64884  -0.63798
 Alpha  occ. eigenvalues --   -0.63032  -0.62336  -0.61191  -0.59616  -0.59522
 Alpha  occ. eigenvalues --   -0.59479  -0.59445  -0.58412  -0.57814  -0.57290
 Alpha  occ. eigenvalues --   -0.56876  -0.54605  -0.53237  -0.53026  -0.51837
 Alpha  occ. eigenvalues --   -0.51508  -0.51186  -0.49493  -0.49305  -0.49237
 Alpha  occ. eigenvalues --   -0.49188  -0.48700  -0.48591  -0.48359  -0.47519
 Alpha  occ. eigenvalues --   -0.47501  -0.47417  -0.47267  -0.46949  -0.46778
 Alpha  occ. eigenvalues --   -0.46671  -0.46458  -0.46345  -0.46222  -0.46123
 Alpha  occ. eigenvalues --   -0.45818  -0.44915  -0.44747  -0.44448  -0.43414
 Alpha  occ. eigenvalues --   -0.43304  -0.42935  -0.42573  -0.42299  -0.42233
 Alpha  occ. eigenvalues --   -0.40660  -0.40387  -0.40109  -0.40026  -0.39625
 Alpha  occ. eigenvalues --   -0.39411  -0.39297  -0.39065  -0.39001  -0.38850
 Alpha  occ. eigenvalues --   -0.38171  -0.35967  -0.34321  -0.32553  -0.32492
 Alpha  occ. eigenvalues --   -0.32041  -0.31798  -0.31170  -0.31067  -0.31031
 Alpha  occ. eigenvalues --   -0.29297  -0.29175  -0.28963  -0.23841  -0.22324
 Alpha virt. eigenvalues --    0.01315   0.01968   0.02056   0.03656   0.03746
 Alpha virt. eigenvalues --    0.03998   0.04099   0.04517   0.04880   0.04943
 Alpha virt. eigenvalues --    0.07439   0.08001   0.08058   0.08083   0.08158

 Mulliken charges:
               1
     1  C   -0.148210
     2  C    0.017640
     3  C   -0.150397
     4  C   -0.148153
     5  C    0.029840
     6  C   -0.150371
     7  H    0.118878
     8  H    0.144431
     9  H    0.120533
    10  C    0.030161
    11  C   -0.150548
    12  C   -0.150050
    13  C   -0.145533
    14  C   -0.149275
    15  C    0.012841
    16  H    0.120227
    17  H    0.120358
    18  H    0.144470
    19  H    0.143521
    20  H    0.144146
    21  N   -0.001010
    22  C   -0.112955
    23  C   -0.059416
    24  C   -0.084549
    25  C   -0.202500
    26  C   -0.175217
    27  C    0.118835
    28  H    0.134248
    29  H    0.142686
    30  H    0.116788
    31  H    0.106345
    32  C   -0.106982
    33  C   -0.081459
    34  C   -0.067323
    35  C   -0.172490
    36  C   -0.199250
    37  C    0.115726
    38  H    0.136006
    39  H    0.141335
    40  H    0.106888
    41  H    0.116996
    42  N   -0.000144
    43  C   -0.115966
    44  C   -0.080680
    45  C   -0.061649
    46  C   -0.173413
    47  C   -0.200331
    48  C    0.116424
    49  H    0.135384
    50  H    0.141011
    51  H    0.107129
    52  H    0.116977
    53  C   -0.114323
    54  C   -0.081384
    55  C   -0.062859
    56  C   -0.173389
    57  C   -0.200250
    58  C    0.116222
    59  H    0.135394
    60  H    0.141547
    61  H    0.106989
    62  H    0.117170
    63  O   -0.242612
    64  H    0.268408
    65  O   -0.242592
    66  H    0.268485
    67  O   -0.242932
    68  H    0.268476
    69  O   -0.242743
    70  H    0.268443
 Sum of Mulliken charges =  -0.00000

 Dipole moment (field-independent basis, Debye):
    X=              1.6785    Y=             -0.4215    Z=              2.0467  Tot=              2.6803
 Quadrupole moment (field-independent basis, Debye-Ang):
   XX=           -190.4763   YY=           -232.7049   ZZ=           -241.8023
   XY=             -5.2390   XZ=            -14.6791   YZ=            -12.0327

 Normal termination of Gaussian 16 at Mon Jan 18 13:35:58 2021.
