 Gaussian 16, Revision A.03,
 Gaussian 16:  EM64L-G16RevA.03 25-Dec-2016

 ----------------------------------------------------------------------
 #P LC-wHPBE/TZVP iop(3/107=0174500000, 3/108=0174500000) scf=(conver=6
 ,fermi,ndamp=35,noincfock,novaracc,vshift=500,xqc)
 ----------------------------------------------------------------------

 -------------
 H28 C36 N2 O4
 -------------
 Symbolic Z-matrix:
 Charge =  0 Multiplicity = 1

                         Standard orientation:
 ---------------------------------------------------------------------
 Center     Atomic      Atomic             Coordinates (Angstroms)
 Number     Number       Type             X           Y           Z
 ---------------------------------------------------------------------
      1          6           0        2.858499   -1.142103    0.374244
      2          6           0        3.579312    0.001087   -0.003359
      3          6           0        1.469111   -1.138314    0.362939
      4          6           0        2.858875    1.143435   -0.384264
      5          6           0        0.739097   -0.000512   -0.009817
      6          6           0        1.469477    1.138129   -0.379362
      7          1           0        0.937192   -2.033473    0.688815
      8          1           0        3.397761    2.037798   -0.696269
      9          1           0        0.938071    2.032504   -0.708142
     10          6           0       -0.742883   -0.001384   -0.012974
     11          6           0       -1.474511    1.130858    0.372988
     12          6           0       -1.471490   -1.134716   -0.402503
     13          6           0       -2.864100    1.134318    0.378218
     14          6           0       -2.860735   -1.140009   -0.413286
     15          6           0       -3.582937   -0.003346   -0.018716
     16          1           0       -0.944110    2.021230    0.714069
     17          1           0       -0.938347   -2.023708   -0.742945
     18          1           0       -3.404263    2.023625    0.702274
     19          1           0       -3.398798   -2.029064   -0.741639
     20          1           0        3.397024   -2.035914    0.688457
     21          7           0       -4.995311   -0.005703   -0.022721
     22          6           0       -5.713915   -1.185510    0.315496
     23          6           0       -6.824749   -1.586223   -0.439679
     24          6           0       -5.336499   -1.964565    1.414395
     25          6           0       -7.543368   -2.726588   -0.103607
     26          6           0       -6.037549   -3.122582    1.739703
     27          6           0       -7.148838   -3.505710    0.986012
     28          1           0       -7.129554   -0.987536   -1.298124
     29          1           0       -4.477812   -1.664402    2.014832
     30          1           0       -8.408278   -3.036049   -0.689802
     31          1           0       -5.724570   -3.720924    2.598980
     32          6           0       -5.717056    1.178925   -0.336296
     33          6           0       -6.821807    1.565845    0.429047
     34          6           0       -5.346761    1.975943   -1.428789
     35          6           0       -7.543924    2.712298    0.107280
     36          6           0       -6.047800    3.134194   -1.738027
     37          6           0       -7.155651    3.506391   -0.973222
     38          1           0       -7.124426    0.956025    1.280239
     39          1           0       -4.491517    1.682511   -2.037555
     40          1           0       -8.407549    2.995534    0.714075
     41          1           0       -5.757368    3.754511   -2.585554
     42          7           0        4.991423    0.001999   -0.000060
     43          6           0        5.710552    1.183762    0.330631
     44          6           0        6.812654    1.584277   -0.431608
     45          6           0        5.340603    1.964026    1.435102
     46          6           0        7.532572    2.727778   -0.095183
     47          6           0        6.039551    3.119564    1.759528
     48          6           0        7.144632    3.505373    0.997606
     49          1           0        7.113605    0.987752   -1.292811
     50          1           0        4.486562    1.660323    2.040543
     51          1           0        8.393358    3.022713   -0.700462
     52          1           0        5.749024    3.727528    2.615933
     53          6           0        5.713955   -1.178690   -0.326778
     54          6           0        6.814458   -1.575861    0.439552
     55          6           0        5.349314   -1.961286   -1.431414
     56          6           0        7.537888   -2.718318    0.107058
     57          6           0        6.051756   -3.115796   -1.751909
     58          6           0        7.155153   -3.498257   -0.985865
     59          1           0        7.111509   -0.977436    1.300789
     60          1           0        4.496830   -1.660119   -2.040298
     61          1           0        8.397429   -3.010471    0.715458
     62          1           0        5.765438   -3.725350   -2.608604
     63          8           0        7.820509   -4.641023   -1.355507
     64          1           0        8.555246   -4.788670   -0.739309
     65          8           0        7.806379    4.648952    1.371018
     66          1           0        8.541702    4.800061    0.756350
     67          8           0       -7.887404   -4.628973    1.265636
     68          1           0       -7.503413   -5.071476    2.038990
     69          8           0       -7.819547    4.653451   -1.332021
     70          1           0       -8.560354    4.790553   -0.720672
 ---------------------------------------------------------------------

 SCF Done:  E(RLC-wHPBE) =  -1797.97900191     A.U. after   14 cycles

 The electronic state is 1-A.
 Alpha  occ. eigenvalues --  -18.88203 -18.88198 -18.88145 -18.88076 -14.11457
 Alpha  occ. eigenvalues --  -14.11401 -10.04666 -10.04665 -10.04607 -10.04538
 Alpha  occ. eigenvalues --  -10.02355 -10.02329 -10.02264 -10.02259 -10.02207
 Alpha  occ. eigenvalues --  -10.02166  -9.99251  -9.99246  -9.99194  -9.99125
 Alpha  occ. eigenvalues --   -9.99087  -9.99084  -9.99023  -9.98969  -9.98920
 Alpha  occ. eigenvalues --   -9.98918  -9.98864  -9.98804  -9.98760  -9.98745
 Alpha  occ. eigenvalues --   -9.98617  -9.98616  -9.98559  -9.98499  -9.98214
 Alpha  occ. eigenvalues --   -9.98207  -9.98201  -9.98199  -9.97973  -9.97968
 Alpha  occ. eigenvalues --   -9.97965  -9.97959  -1.07582  -1.07579  -1.07523
 Alpha  occ. eigenvalues --   -1.07455  -0.98594  -0.98536  -0.89020  -0.88564
 Alpha  occ. eigenvalues --   -0.88483  -0.87974  -0.86966  -0.85861  -0.80585
 Alpha  occ. eigenvalues --   -0.78913  -0.78861  -0.78756  -0.78383  -0.78304
 Alpha  occ. eigenvalues --   -0.78126  -0.77395  -0.76986  -0.76789  -0.74688
 Alpha  occ. eigenvalues --   -0.72684  -0.68419  -0.67716  -0.67135  -0.66943
 Alpha  occ. eigenvalues --   -0.66505  -0.65817  -0.65398  -0.64772  -0.63689
 Alpha  occ. eigenvalues --   -0.62921  -0.62228  -0.61082  -0.59510  -0.59418
 Alpha  occ. eigenvalues --   -0.59375  -0.59340  -0.58305  -0.57710  -0.57189
 Alpha  occ. eigenvalues --   -0.56776  -0.54501  -0.53135  -0.52924  -0.51736
 Alpha  occ. eigenvalues --   -0.51408  -0.51085  -0.49395  -0.49207  -0.49139
 Alpha  occ. eigenvalues --   -0.49090  -0.48601  -0.48491  -0.48260  -0.47423
 Alpha  occ. eigenvalues --   -0.47404  -0.47321  -0.47171  -0.46852  -0.46681
 Alpha  occ. eigenvalues --   -0.46571  -0.46356  -0.46242  -0.46121  -0.46023
 Alpha  occ. eigenvalues --   -0.45719  -0.44822  -0.44653  -0.44355  -0.43319
 Alpha  occ. eigenvalues --   -0.43212  -0.42839  -0.42481  -0.42203  -0.42141
 Alpha  occ. eigenvalues --   -0.40565  -0.40291  -0.40013  -0.39931  -0.39536
 Alpha  occ. eigenvalues --   -0.39322  -0.39208  -0.38978  -0.38914  -0.38764
 Alpha  occ. eigenvalues --   -0.38083  -0.35880  -0.34234  -0.32478  -0.32416
 Alpha  occ. eigenvalues --   -0.31965  -0.31724  -0.31094  -0.30993  -0.30956
 Alpha  occ. eigenvalues --   -0.29226  -0.29104  -0.28895  -0.23781  -0.22267
 Alpha virt. eigenvalues --    0.01266   0.01913   0.02001   0.03601   0.03691
 Alpha virt. eigenvalues --    0.03938   0.04039   0.04457   0.04824   0.04883
 Alpha virt. eigenvalues --    0.07379   0.07940   0.07997   0.08022   0.08097

 Mulliken charges:
               1
     1  C   -0.148162
     2  C    0.017759
     3  C   -0.150169
     4  C   -0.148104
     5  C    0.029917
     6  C   -0.150144
     7  H    0.118655
     8  H    0.144175
     9  H    0.120310
    10  C    0.030237
    11  C   -0.150318
    12  C   -0.149820
    13  C   -0.145486
    14  C   -0.149233
    15  C    0.012965
    16  H    0.120004
    17  H    0.120135
    18  H    0.144214
    19  H    0.143265
    20  H    0.143890
    21  N   -0.000405
    22  C   -0.112881
    23  C   -0.059404
    24  C   -0.084539
    25  C   -0.202259
    26  C   -0.174965
    27  C    0.118899
    28  H    0.134003
    29  H    0.142444
    30  H    0.116598
    31  H    0.106162
    32  C   -0.106915
    33  C   -0.081386
    34  C   -0.067364
    35  C   -0.172241
    36  C   -0.199012
    37  C    0.115793
    38  H    0.135769
    39  H    0.141087
    40  H    0.106701
    41  H    0.116809
    42  N    0.000461
    43  C   -0.115893
    44  C   -0.080616
    45  C   -0.061692
    46  C   -0.173161
    47  C   -0.200089
    48  C    0.116487
    49  H    0.135147
    50  H    0.140762
    51  H    0.106943
    52  H    0.116790
    53  C   -0.114249
    54  C   -0.081318
    55  C   -0.062903
    56  C   -0.173138
    57  C   -0.200008
    58  C    0.116286
    59  H    0.135157
    60  H    0.141299
    61  H    0.106802
    62  H    0.116983
    63  O   -0.242598
    64  H    0.268402
    65  O   -0.242578
    66  H    0.268479
    67  O   -0.242919
    68  H    0.268471
    69  O   -0.242728
    70  H    0.268437
 Sum of Mulliken charges =  -0.00000

 Dipole moment (field-independent basis, Debye):
    X=              1.6779    Y=             -0.4213    Z=              2.0460  Tot=              2.6794
 Quadrupole moment (field-independent basis, Debye-Ang):
   XX=           -190.4458   YY=           -232.6880   ZZ=           -241.8178
   XY=             -5.2375   XZ=            -14.6741   YZ=            -12.0289

 Normal termination of Gaussian 16 at Mon Jan 18 11:46:32 2021.
