 Gaussian 16, Revision A.03,
 Gaussian 16:  EM64L-G16RevA.03 25-Dec-2016

 ----------------------------------------------------------------------
 #P LC-wHPBE/TZVP iop(3/107=0221900000, 3/108=0221900000) scf=(conver=6
 ,fermi,ndamp=35,noincfock,novaracc,vshift=500,xqc)
 ----------------------------------------------------------------------

 -------------
 H28 C36 N2 O4
 -------------
 Symbolic Z-matrix:
 Charge =  1 Multiplicity = 2

                         Standard orientation:
 ---------------------------------------------------------------------
 Center     Atomic      Atomic             Coordinates (Angstroms)
 Number     Number       Type             X           Y           Z
 ---------------------------------------------------------------------
      1          6           0        2.858499   -1.142103    0.374244
      2          6           0        3.579312    0.001087   -0.003359
      3          6           0        1.469111   -1.138314    0.362939
      4          6           0        2.858875    1.143435   -0.384264
      5          6           0        0.739097   -0.000512   -0.009817
      6          6           0        1.469477    1.138129   -0.379362
      7          1           0        0.937192   -2.033473    0.688815
      8          1           0        3.397761    2.037798   -0.696269
      9          1           0        0.938071    2.032504   -0.708142
     10          6           0       -0.742883   -0.001384   -0.012974
     11          6           0       -1.474511    1.130858    0.372988
     12          6           0       -1.471490   -1.134716   -0.402503
     13          6           0       -2.864100    1.134318    0.378218
     14          6           0       -2.860735   -1.140009   -0.413286
     15          6           0       -3.582937   -0.003346   -0.018716
     16          1           0       -0.944110    2.021230    0.714069
     17          1           0       -0.938347   -2.023708   -0.742945
     18          1           0       -3.404263    2.023625    0.702274
     19          1           0       -3.398798   -2.029064   -0.741639
     20          1           0        3.397024   -2.035914    0.688457
     21          7           0       -4.995311   -0.005703   -0.022721
     22          6           0       -5.713915   -1.185510    0.315496
     23          6           0       -6.824749   -1.586223   -0.439679
     24          6           0       -5.336499   -1.964565    1.414395
     25          6           0       -7.543368   -2.726588   -0.103607
     26          6           0       -6.037549   -3.122582    1.739703
     27          6           0       -7.148838   -3.505710    0.986012
     28          1           0       -7.129554   -0.987536   -1.298124
     29          1           0       -4.477812   -1.664402    2.014832
     30          1           0       -8.408278   -3.036049   -0.689802
     31          1           0       -5.724570   -3.720924    2.598980
     32          6           0       -5.717056    1.178925   -0.336296
     33          6           0       -6.821807    1.565845    0.429047
     34          6           0       -5.346761    1.975943   -1.428789
     35          6           0       -7.543924    2.712298    0.107280
     36          6           0       -6.047800    3.134194   -1.738027
     37          6           0       -7.155651    3.506391   -0.973222
     38          1           0       -7.124426    0.956025    1.280239
     39          1           0       -4.491517    1.682511   -2.037555
     40          1           0       -8.407549    2.995534    0.714075
     41          1           0       -5.757368    3.754511   -2.585554
     42          7           0        4.991423    0.001999   -0.000060
     43          6           0        5.710552    1.183762    0.330631
     44          6           0        6.812654    1.584277   -0.431608
     45          6           0        5.340603    1.964026    1.435102
     46          6           0        7.532572    2.727778   -0.095183
     47          6           0        6.039551    3.119564    1.759528
     48          6           0        7.144632    3.505373    0.997606
     49          1           0        7.113605    0.987752   -1.292811
     50          1           0        4.486562    1.660323    2.040543
     51          1           0        8.393358    3.022713   -0.700462
     52          1           0        5.749024    3.727528    2.615933
     53          6           0        5.713955   -1.178690   -0.326778
     54          6           0        6.814458   -1.575861    0.439552
     55          6           0        5.349314   -1.961286   -1.431414
     56          6           0        7.537888   -2.718318    0.107058
     57          6           0        6.051756   -3.115796   -1.751909
     58          6           0        7.155153   -3.498257   -0.985865
     59          1           0        7.111509   -0.977436    1.300789
     60          1           0        4.496830   -1.660119   -2.040298
     61          1           0        8.397429   -3.010471    0.715458
     62          1           0        5.765438   -3.725350   -2.608604
     63          8           0        7.820509   -4.641023   -1.355507
     64          1           0        8.555246   -4.788670   -0.739309
     65          8           0        7.806379    4.648952    1.371018
     66          1           0        8.541702    4.800061    0.756350
     67          8           0       -7.887404   -4.628973    1.265636
     68          1           0       -7.503413   -5.071476    2.038990
     69          8           0       -7.819547    4.653451   -1.332021
     70          1           0       -8.560354    4.790553   -0.720672
 ---------------------------------------------------------------------

 SCF Done:  E(ULC-wHPBE) =  -1797.85410961     A.U. after   33 cycles
 SCF Done:  E(ULC-wHPBE) =  -1797.85411010     a.u. after    1 cycles

 The electronic state is 2-A.
 Alpha  occ. eigenvalues --  -18.99282 -18.99216 -18.98926 -18.98919 -14.27567
 Alpha  occ. eigenvalues --  -14.26885 -10.16921 -10.16887 -10.16826 -10.16622
 Alpha  occ. eigenvalues --  -10.16483 -10.16479 -10.15004 -10.14963 -10.14575
 Alpha  occ. eigenvalues --  -10.14569 -10.13355 -10.13111 -10.12143 -10.12138
 Alpha  occ. eigenvalues --  -10.12102 -10.12100 -10.11950 -10.11936 -10.11794
 Alpha  occ. eigenvalues --  -10.11784 -10.11741 -10.11569 -10.11462 -10.11387
 Alpha  occ. eigenvalues --  -10.11201 -10.11196 -10.11111 -10.11110 -10.11048
 Alpha  occ. eigenvalues --  -10.10947 -10.10642 -10.10634 -10.10359 -10.10347
 Alpha  occ. eigenvalues --  -10.10047 -10.10044  -1.18768  -1.18701  -1.18419
 Alpha  occ. eigenvalues --   -1.18413  -1.13327  -1.12805  -1.03144  -1.01433
 Alpha  occ. eigenvalues --   -1.01039  -1.00654  -0.99575  -0.98883  -0.94426
 Alpha  occ. eigenvalues --   -0.91920  -0.91454  -0.91206  -0.90666  -0.90426
 Alpha  occ. eigenvalues --   -0.90266  -0.90115  -0.89863  -0.89771  -0.87239
 Alpha  occ. eigenvalues --   -0.85544  -0.81037  -0.80246  -0.79355  -0.79056
 Alpha  occ. eigenvalues --   -0.78229  -0.78020  -0.77722  -0.77154  -0.76096
 Alpha  occ. eigenvalues --   -0.75934  -0.74114  -0.73477  -0.71518  -0.70997
 Alpha  occ. eigenvalues --   -0.70868  -0.70650  -0.70275  -0.70087  -0.69323
 Alpha  occ. eigenvalues --   -0.68581  -0.67498  -0.65301  -0.64684  -0.63927
 Alpha  occ. eigenvalues --   -0.63329  -0.62932  -0.61958  -0.61386  -0.61188
 Alpha  occ. eigenvalues --   -0.60511  -0.60480  -0.60364  -0.60017  -0.59515
 Alpha  occ. eigenvalues --   -0.58947  -0.58791  -0.58551  -0.58511  -0.58312
 Alpha  occ. eigenvalues --   -0.58214  -0.57792  -0.57543  -0.57485  -0.57337
 Alpha  occ. eigenvalues --   -0.57210  -0.56688  -0.56543  -0.56206  -0.55923
 Alpha  occ. eigenvalues --   -0.55459  -0.54510  -0.53931  -0.53457  -0.53115
 Alpha  occ. eigenvalues --   -0.52370  -0.52102  -0.52057  -0.51833  -0.51353
 Alpha  occ. eigenvalues --   -0.51000  -0.50844  -0.50117  -0.49887  -0.49699
 Alpha  occ. eigenvalues --   -0.49635  -0.48526  -0.46730  -0.44007  -0.43729
 Alpha  occ. eigenvalues --   -0.43524  -0.42915  -0.42562  -0.42528  -0.42171
 Alpha  occ. eigenvalues --   -0.40625  -0.39871  -0.39554  -0.35647  -0.34465
 Alpha virt. eigenvalues --   -0.08701  -0.06877  -0.06536  -0.04836  -0.04672
 Alpha virt. eigenvalues --   -0.04485  -0.04357  -0.04234  -0.04118  -0.03809
 Alpha virt. eigenvalues --   -0.01272   0.00024   0.01834   0.02059   0.02151

  Beta  occ. eigenvalues --  -18.99239 -18.99173 -18.98889 -18.98882 -14.27128
  Beta  occ. eigenvalues --  -14.26494 -10.16891 -10.16820 -10.16759 -10.16586
  Beta  occ. eigenvalues --  -10.16424 -10.16420 -10.15035 -10.14995 -10.14604
  Beta  occ. eigenvalues --  -10.14598 -10.13258 -10.13030 -10.12126 -10.12122
  Beta  occ. eigenvalues --  -10.12062 -10.12054 -10.11941 -10.11927 -10.11747
  Beta  occ. eigenvalues --  -10.11737 -10.11674 -10.11504 -10.11400 -10.11329
  Beta  occ. eigenvalues --  -10.11144 -10.11139 -10.11073 -10.11055 -10.11055
  Beta  occ. eigenvalues --  -10.10967 -10.10659 -10.10652 -10.10380 -10.10373
  Beta  occ. eigenvalues --  -10.10070 -10.10067  -1.18688  -1.18621  -1.18349
  Beta  occ. eigenvalues --   -1.18344  -1.12796  -1.12334  -1.02968  -1.01280
  Beta  occ. eigenvalues --   -1.00952  -1.00578  -0.99442  -0.98731  -0.94199
  Beta  occ. eigenvalues --   -0.91844  -0.91379  -0.91092  -0.90597  -0.90364
  Beta  occ. eigenvalues --   -0.90206  -0.90050  -0.89797  -0.89664  -0.87044
  Beta  occ. eigenvalues --   -0.85229  -0.80954  -0.80119  -0.79246  -0.78945
  Beta  occ. eigenvalues --   -0.78120  -0.77927  -0.77635  -0.77060  -0.75986
  Beta  occ. eigenvalues --   -0.75817  -0.74028  -0.73399  -0.71442  -0.70919
  Beta  occ. eigenvalues --   -0.70806  -0.70600  -0.70201  -0.70033  -0.69225
  Beta  occ. eigenvalues --   -0.68467  -0.67394  -0.65040  -0.64466  -0.63863
  Beta  occ. eigenvalues --   -0.63273  -0.62877  -0.61794  -0.61281  -0.61105
  Beta  occ. eigenvalues --   -0.60455  -0.60403  -0.60294  -0.59972  -0.59466
  Beta  occ. eigenvalues --   -0.58889  -0.58728  -0.58478  -0.58463  -0.58259
  Beta  occ. eigenvalues --   -0.58170  -0.57669  -0.57387  -0.57298  -0.57136
  Beta  occ. eigenvalues --   -0.57045  -0.56541  -0.56347  -0.55937  -0.55754
  Beta  occ. eigenvalues --   -0.55205  -0.54211  -0.53740  -0.53391  -0.53054
  Beta  occ. eigenvalues --   -0.52075  -0.51977  -0.51969  -0.51535  -0.51035
  Beta  occ. eigenvalues --   -0.50722  -0.50616  -0.50044  -0.49844  -0.49631
  Beta  occ. eigenvalues --   -0.49600  -0.48064  -0.45556  -0.43893  -0.43631
  Beta  occ. eigenvalues --   -0.42811  -0.42559  -0.42461  -0.42293  -0.41690
  Beta  occ. eigenvalues --   -0.39230  -0.39000  -0.38898  -0.31244
  Beta virt. eigenvalues --   -0.22315  -0.08406  -0.06583  -0.06243  -0.04534
  Beta virt. eigenvalues --   -0.04296  -0.04224  -0.03974  -0.03798  -0.03762
  Beta virt. eigenvalues --   -0.03549  -0.00634   0.00781   0.01854   0.02072

 Mulliken charges and spin densities:
               1          2
     1  C   -0.137977   0.027376
     2  C    0.012313   0.041268
     3  C   -0.139144  -0.001249
     4  C   -0.137877   0.027292
     5  C    0.030354   0.056580
     6  C   -0.139097  -0.001370
     7  H    0.149245  -0.000393
     8  H    0.177202  -0.001229
     9  H    0.150783  -0.000400
    10  C    0.027758   0.068492
    11  C   -0.139345  -0.007560
    12  C   -0.139126  -0.008811
    13  C   -0.133586   0.034928
    14  C   -0.137323   0.035722
    15  C    0.006305   0.037790
    16  H    0.152337  -0.000102
    17  H    0.152500  -0.000050
    18  H    0.177852  -0.001566
    19  H    0.177245  -0.001572
    20  H    0.176952  -0.001232
    21  N    0.032598   0.193213
    22  C   -0.127803  -0.011978
    23  C   -0.049201   0.041429
    24  C   -0.079360   0.044386
    25  C   -0.199613  -0.022367
    26  C   -0.169917  -0.025548
    27  C    0.122852   0.049948
    28  H    0.160229  -0.001745
    29  H    0.160643  -0.002239
    30  H    0.150657   0.001060
    31  H    0.135709   0.001246
    32  C   -0.121316  -0.011644
    33  C   -0.071712   0.045861
    34  C   -0.061404   0.040733
    35  C   -0.166080  -0.022163
    36  C   -0.197278  -0.025953
    37  C    0.119979   0.050455
    38  H    0.161334  -0.002018
    39  H    0.160187  -0.002014
    40  H    0.139185   0.000982
    41  H    0.148108   0.001312
    42  N    0.027721   0.171757
    43  C   -0.129557  -0.011383
    44  C   -0.072119   0.040495
    45  C   -0.057012   0.035751
    46  C   -0.168208  -0.019729
    47  C   -0.199129  -0.022883
    48  C    0.119798   0.043890
    49  H    0.159445  -0.001775
    50  H    0.157358  -0.001805
    51  H    0.137627   0.000875
    52  H    0.145914   0.001179
    53  C   -0.127902  -0.011444
    54  C   -0.072812   0.040624
    55  C   -0.058183   0.035857
    56  C   -0.168171  -0.019789
    57  C   -0.199040  -0.022969
    58  C    0.119612   0.044021
    59  H    0.159466  -0.001780
    60  H    0.157919  -0.001810
    61  H    0.137508   0.000877
    62  H    0.146123   0.001182
    63  O   -0.219691   0.012398
    64  H    0.280285  -0.000320
    65  O   -0.219695   0.012372
    66  H    0.280354  -0.000319
    67  O   -0.216615   0.014178
    68  H    0.280142  -0.000366
    69  O   -0.217488   0.014415
    70  H    0.281184  -0.000373
 Sum of Mulliken charges =   1.00000   1.00000

 Dipole moment (field-independent basis, Debye):
    X=              0.5916    Y=             -0.4240    Z=              2.0980  Tot=              2.2207
 Quadrupole moment (field-independent basis, Debye-Ang):
   XX=            -20.8009   YY=           -193.0703   ZZ=           -231.0010
   XY=             -5.4666   XZ=            -15.0635   YZ=            -12.7328

 Normal termination of Gaussian 16 at Mon Jan 18 04:35:51 2021.
