 Gaussian 16, Revision A.03,
 Gaussian 16:  EM64L-G16RevA.03 25-Dec-2016

 ----------------------------------------------------------------------
 #P LC-wHPBE/TZVP iop(3/107=0328100000, 3/108=0328100000) scf=(conver=6
 ,fermi,ndamp=35,noincfock,novaracc,vshift=500,xqc)
 ----------------------------------------------------------------------

 -------------
 H28 C36 N2 O4
 -------------
 Symbolic Z-matrix:
 Charge =  0 Multiplicity = 1

                         Standard orientation:
 ---------------------------------------------------------------------
 Center     Atomic      Atomic             Coordinates (Angstroms)
 Number     Number       Type             X           Y           Z
 ---------------------------------------------------------------------
      1          6           0        2.858499   -1.142103    0.374244
      2          6           0        3.579312    0.001087   -0.003359
      3          6           0        1.469111   -1.138314    0.362939
      4          6           0        2.858875    1.143435   -0.384264
      5          6           0        0.739097   -0.000512   -0.009817
      6          6           0        1.469477    1.138129   -0.379362
      7          1           0        0.937192   -2.033473    0.688815
      8          1           0        3.397761    2.037798   -0.696269
      9          1           0        0.938071    2.032504   -0.708142
     10          6           0       -0.742883   -0.001384   -0.012974
     11          6           0       -1.474511    1.130858    0.372988
     12          6           0       -1.471490   -1.134716   -0.402503
     13          6           0       -2.864100    1.134318    0.378218
     14          6           0       -2.860735   -1.140009   -0.413286
     15          6           0       -3.582937   -0.003346   -0.018716
     16          1           0       -0.944110    2.021230    0.714069
     17          1           0       -0.938347   -2.023708   -0.742945
     18          1           0       -3.404263    2.023625    0.702274
     19          1           0       -3.398798   -2.029064   -0.741639
     20          1           0        3.397024   -2.035914    0.688457
     21          7           0       -4.995311   -0.005703   -0.022721
     22          6           0       -5.713915   -1.185510    0.315496
     23          6           0       -6.824749   -1.586223   -0.439679
     24          6           0       -5.336499   -1.964565    1.414395
     25          6           0       -7.543368   -2.726588   -0.103607
     26          6           0       -6.037549   -3.122582    1.739703
     27          6           0       -7.148838   -3.505710    0.986012
     28          1           0       -7.129554   -0.987536   -1.298124
     29          1           0       -4.477812   -1.664402    2.014832
     30          1           0       -8.408278   -3.036049   -0.689802
     31          1           0       -5.724570   -3.720924    2.598980
     32          6           0       -5.717056    1.178925   -0.336296
     33          6           0       -6.821807    1.565845    0.429047
     34          6           0       -5.346761    1.975943   -1.428789
     35          6           0       -7.543924    2.712298    0.107280
     36          6           0       -6.047800    3.134194   -1.738027
     37          6           0       -7.155651    3.506391   -0.973222
     38          1           0       -7.124426    0.956025    1.280239
     39          1           0       -4.491517    1.682511   -2.037555
     40          1           0       -8.407549    2.995534    0.714075
     41          1           0       -5.757368    3.754511   -2.585554
     42          7           0        4.991423    0.001999   -0.000060
     43          6           0        5.710552    1.183762    0.330631
     44          6           0        6.812654    1.584277   -0.431608
     45          6           0        5.340603    1.964026    1.435102
     46          6           0        7.532572    2.727778   -0.095183
     47          6           0        6.039551    3.119564    1.759528
     48          6           0        7.144632    3.505373    0.997606
     49          1           0        7.113605    0.987752   -1.292811
     50          1           0        4.486562    1.660323    2.040543
     51          1           0        8.393358    3.022713   -0.700462
     52          1           0        5.749024    3.727528    2.615933
     53          6           0        5.713955   -1.178690   -0.326778
     54          6           0        6.814458   -1.575861    0.439552
     55          6           0        5.349314   -1.961286   -1.431414
     56          6           0        7.537888   -2.718318    0.107058
     57          6           0        6.051756   -3.115796   -1.751909
     58          6           0        7.155153   -3.498257   -0.985865
     59          1           0        7.111509   -0.977436    1.300789
     60          1           0        4.496830   -1.660119   -2.040298
     61          1           0        8.397429   -3.010471    0.715458
     62          1           0        5.765438   -3.725350   -2.608604
     63          8           0        7.820509   -4.641023   -1.355507
     64          1           0        8.555246   -4.788670   -0.739309
     65          8           0        7.806379    4.648952    1.371018
     66          1           0        8.541702    4.800061    0.756350
     67          8           0       -7.887404   -4.628973    1.265636
     68          1           0       -7.503413   -5.071476    2.038990
     69          8           0       -7.819547    4.653451   -1.332021
     70          1           0       -8.560354    4.790553   -0.720672
 ---------------------------------------------------------------------

 SCF Done:  E(RLC-wHPBE) =  -1798.27040993     A.U. after   14 cycles

 The electronic state is 1-A.
 Alpha  occ. eigenvalues --  -18.96205 -18.96200 -18.96146 -18.96073 -14.19575
 Alpha  occ. eigenvalues --  -14.19517 -10.13589 -10.13588 -10.13527 -10.13455
 Alpha  occ. eigenvalues --  -10.11302 -10.11274 -10.11097 -10.11091 -10.11039
 Alpha  occ. eigenvalues --  -10.10996 -10.07983 -10.07978 -10.07928 -10.07888
 Alpha  occ. eigenvalues --  -10.07885 -10.07853 -10.07824 -10.07765 -10.07712
 Alpha  occ. eigenvalues --  -10.07711 -10.07653 -10.07591 -10.07571 -10.07555
 Alpha  occ. eigenvalues --  -10.07316 -10.07315 -10.07254 -10.07195 -10.07048
 Alpha  occ. eigenvalues --  -10.07040 -10.07034 -10.07032 -10.06715 -10.06709
 Alpha  occ. eigenvalues --  -10.06706 -10.06701  -1.16041  -1.16037  -1.15981
 Alpha  occ. eigenvalues --   -1.15909  -1.07515  -1.07454  -0.98186  -0.97561
 Alpha  occ. eigenvalues --   -0.97477  -0.96972  -0.95817  -0.94674  -0.89106
 Alpha  occ. eigenvalues --   -0.87298  -0.87236  -0.87191  -0.86819  -0.86649
 Alpha  occ. eigenvalues --   -0.86472  -0.85756  -0.85160  -0.85129  -0.82591
 Alpha  occ. eigenvalues --   -0.80445  -0.75813  -0.75014  -0.74382  -0.74260
 Alpha  occ. eigenvalues --   -0.73955  -0.73153  -0.72727  -0.72065  -0.70789
 Alpha  occ. eigenvalues --   -0.70163  -0.69171  -0.68032  -0.66165  -0.66027
 Alpha  occ. eigenvalues --   -0.65908  -0.65864  -0.65052  -0.64223  -0.63503
 Alpha  occ. eigenvalues --   -0.63021  -0.60934  -0.59569  -0.59354  -0.58000
 Alpha  occ. eigenvalues --   -0.57644  -0.57328  -0.55481  -0.55270  -0.55192
 Alpha  occ. eigenvalues --   -0.55157  -0.54707  -0.54575  -0.54338  -0.53394
 Alpha  occ. eigenvalues --   -0.53308  -0.53269  -0.53091  -0.52911  -0.52778
 Alpha  occ. eigenvalues --   -0.52686  -0.52598  -0.52433  -0.52230  -0.52012
 Alpha  occ. eigenvalues --   -0.51685  -0.50514  -0.50462  -0.50067  -0.49192
 Alpha  occ. eigenvalues --   -0.48880  -0.48465  -0.48164  -0.47894  -0.47657
 Alpha  occ. eigenvalues --   -0.46295  -0.46009  -0.45654  -0.45576  -0.44864
 Alpha  occ. eigenvalues --   -0.44606  -0.44517  -0.44184  -0.44119  -0.43932
 Alpha  occ. eigenvalues --   -0.43259  -0.40841  -0.39255  -0.36404  -0.36345
 Alpha  occ. eigenvalues --   -0.36011  -0.35622  -0.35085  -0.34857  -0.34855
 Alpha  occ. eigenvalues --   -0.33013  -0.32878  -0.32435  -0.26986  -0.25291
 Alpha virt. eigenvalues --    0.03461   0.04307   0.04401   0.06138   0.06230
 Alpha virt. eigenvalues --    0.06631   0.06737   0.07118   0.07413   0.07593
 Alpha virt. eigenvalues --    0.10154   0.10802   0.10860   0.10882   0.10962

 Mulliken charges:
               1
     1  C   -0.159676
     2  C   -0.000926
     3  C   -0.165722
     4  C   -0.159613
     5  C    0.015136
     6  C   -0.165641
     7  H    0.144041
     8  H    0.171869
     9  H    0.145631
    10  C    0.015565
    11  C   -0.165880
    12  C   -0.165606
    13  C   -0.157015
    14  C   -0.160498
    15  C   -0.006069
    16  H    0.145341
    17  H    0.145479
    18  H    0.171870
    19  H    0.171073
    20  H    0.171597
    21  N   -0.049699
    22  C   -0.126308
    23  C   -0.074064
    24  C   -0.099141
    25  C   -0.213009
    26  C   -0.187973
    27  C    0.108133
    28  H    0.161291
    29  H    0.169503
    30  H    0.140525
    31  H    0.128057
    32  C   -0.120081
    33  C   -0.098883
    34  C   -0.079184
    35  C   -0.185103
    36  C   -0.210177
    37  C    0.105169
    38  H    0.162719
    39  H    0.168438
    40  H    0.128813
    41  H    0.140468
    42  N   -0.048850
    43  C   -0.129202
    44  C   -0.097811
    45  C   -0.073708
    46  C   -0.186110
    47  C   -0.211178
    48  C    0.105903
    49  H    0.162073
    50  H    0.168062
    51  H    0.129072
    52  H    0.140470
    53  C   -0.127599
    54  C   -0.098550
    55  C   -0.074859
    56  C   -0.186083
    57  C   -0.211095
    58  C    0.105695
    59  H    0.162101
    60  H    0.168592
    61  H    0.128939
    62  H    0.140657
    63  O   -0.252720
    64  H    0.271039
    65  O   -0.252708
    66  H    0.271116
    67  O   -0.252982
    68  H    0.271072
    69  O   -0.252859
    70  H    0.271072
 Sum of Mulliken charges =  -0.00000

 Dipole moment (field-independent basis, Debye):
    X=              1.7287    Y=             -0.4357    Z=              2.1075  Tot=              2.7604
 Quadrupole moment (field-independent basis, Debye-Ang):
   XX=           -192.2304   YY=           -233.9697   ZZ=           -240.7294
   XY=             -5.3782   XZ=            -15.1110   YZ=            -12.3755

 Normal termination of Gaussian 16 at Mon Jan 18 04:53:00 2021.
