 Gaussian 16, Revision A.03,
 Gaussian 16:  EM64L-G16RevA.03 25-Dec-2016

 ----------------------------------------------------------------------
 #P LC-wHPBE/TZVP iop(3/107=0175800000, 3/108=0175800000) scf=(conver=6
 ,fermi,ndamp=35,noincfock,novaracc,vshift=500,xqc)
 ----------------------------------------------------------------------

 -------------
 H28 C36 N2 O4
 -------------
 Symbolic Z-matrix:
 Charge =  1 Multiplicity = 2

                         Standard orientation:
 ---------------------------------------------------------------------
 Center     Atomic      Atomic             Coordinates (Angstroms)
 Number     Number       Type             X           Y           Z
 ---------------------------------------------------------------------
      1          6           0        2.858499   -1.142103    0.374244
      2          6           0        3.579312    0.001087   -0.003359
      3          6           0        1.469111   -1.138314    0.362939
      4          6           0        2.858875    1.143435   -0.384264
      5          6           0        0.739097   -0.000512   -0.009817
      6          6           0        1.469477    1.138129   -0.379362
      7          1           0        0.937192   -2.033473    0.688815
      8          1           0        3.397761    2.037798   -0.696269
      9          1           0        0.938071    2.032504   -0.708142
     10          6           0       -0.742883   -0.001384   -0.012974
     11          6           0       -1.474511    1.130858    0.372988
     12          6           0       -1.471490   -1.134716   -0.402503
     13          6           0       -2.864100    1.134318    0.378218
     14          6           0       -2.860735   -1.140009   -0.413286
     15          6           0       -3.582937   -0.003346   -0.018716
     16          1           0       -0.944110    2.021230    0.714069
     17          1           0       -0.938347   -2.023708   -0.742945
     18          1           0       -3.404263    2.023625    0.702274
     19          1           0       -3.398798   -2.029064   -0.741639
     20          1           0        3.397024   -2.035914    0.688457
     21          7           0       -4.995311   -0.005703   -0.022721
     22          6           0       -5.713915   -1.185510    0.315496
     23          6           0       -6.824749   -1.586223   -0.439679
     24          6           0       -5.336499   -1.964565    1.414395
     25          6           0       -7.543368   -2.726588   -0.103607
     26          6           0       -6.037549   -3.122582    1.739703
     27          6           0       -7.148838   -3.505710    0.986012
     28          1           0       -7.129554   -0.987536   -1.298124
     29          1           0       -4.477812   -1.664402    2.014832
     30          1           0       -8.408278   -3.036049   -0.689802
     31          1           0       -5.724570   -3.720924    2.598980
     32          6           0       -5.717056    1.178925   -0.336296
     33          6           0       -6.821807    1.565845    0.429047
     34          6           0       -5.346761    1.975943   -1.428789
     35          6           0       -7.543924    2.712298    0.107280
     36          6           0       -6.047800    3.134194   -1.738027
     37          6           0       -7.155651    3.506391   -0.973222
     38          1           0       -7.124426    0.956025    1.280239
     39          1           0       -4.491517    1.682511   -2.037555
     40          1           0       -8.407549    2.995534    0.714075
     41          1           0       -5.757368    3.754511   -2.585554
     42          7           0        4.991423    0.001999   -0.000060
     43          6           0        5.710552    1.183762    0.330631
     44          6           0        6.812654    1.584277   -0.431608
     45          6           0        5.340603    1.964026    1.435102
     46          6           0        7.532572    2.727778   -0.095183
     47          6           0        6.039551    3.119564    1.759528
     48          6           0        7.144632    3.505373    0.997606
     49          1           0        7.113605    0.987752   -1.292811
     50          1           0        4.486562    1.660323    2.040543
     51          1           0        8.393358    3.022713   -0.700462
     52          1           0        5.749024    3.727528    2.615933
     53          6           0        5.713955   -1.178690   -0.326778
     54          6           0        6.814458   -1.575861    0.439552
     55          6           0        5.349314   -1.961286   -1.431414
     56          6           0        7.537888   -2.718318    0.107058
     57          6           0        6.051756   -3.115796   -1.751909
     58          6           0        7.155153   -3.498257   -0.985865
     59          1           0        7.111509   -0.977436    1.300789
     60          1           0        4.496830   -1.660119   -2.040298
     61          1           0        8.397429   -3.010471    0.715458
     62          1           0        5.765438   -3.725350   -2.608604
     63          8           0        7.820509   -4.641023   -1.355507
     64          1           0        8.555246   -4.788670   -0.739309
     65          8           0        7.806379    4.648952    1.371018
     66          1           0        8.541702    4.800061    0.756350
     67          8           0       -7.887404   -4.628973    1.265636
     68          1           0       -7.503413   -5.071476    2.038990
     69          8           0       -7.819547    4.653451   -1.332021
     70          1           0       -8.560354    4.790553   -0.720672
 ---------------------------------------------------------------------

 SCF Done:  E(ULC-wHPBE) =  -1797.75892191     A.U. after   24 cycles

 The electronic state is 2-A.
 Alpha  occ. eigenvalues --  -18.96820 -18.96759 -18.96633 -18.96627 -14.24745
 Alpha  occ. eigenvalues --  -14.24387 -10.14139 -10.14081 -10.13971 -10.13931
 Alpha  occ. eigenvalues --  -10.13927 -10.13817 -10.12267 -10.12229 -10.12042
 Alpha  occ. eigenvalues --  -10.12036 -10.10446 -10.10316 -10.09292 -10.09287
 Alpha  occ. eigenvalues --  -10.09252 -10.09249 -10.09184 -10.09171 -10.09096
 Alpha  occ. eigenvalues --  -10.09086 -10.08986 -10.08828 -10.08716 -10.08663
 Alpha  occ. eigenvalues --  -10.08657 -10.08652 -10.08560 -10.08559 -10.08376
 Alpha  occ. eigenvalues --  -10.08278 -10.08149 -10.08142 -10.07696 -10.07685
 Alpha  occ. eigenvalues --  -10.07558 -10.07556  -1.16140  -1.16077  -1.15960
 Alpha  occ. eigenvalues --   -1.15954  -1.10367  -1.10099  -1.00166  -0.98536
 Alpha  occ. eigenvalues --   -0.98185  -0.97995  -0.96791  -0.96147  -0.91611
 Alpha  occ. eigenvalues --   -0.89121  -0.88781  -0.88511  -0.87943  -0.87770
 Alpha  occ. eigenvalues --   -0.87631  -0.87460  -0.87291  -0.87138  -0.84670
 Alpha  occ. eigenvalues --   -0.82997  -0.78568  -0.77701  -0.76937  -0.76631
 Alpha  occ. eigenvalues --   -0.75827  -0.75653  -0.75287  -0.74730  -0.73693
 Alpha  occ. eigenvalues --   -0.73495  -0.71760  -0.71156  -0.69142  -0.68739
 Alpha  occ. eigenvalues --   -0.68566  -0.68485  -0.68079  -0.67911  -0.67125
 Alpha  occ. eigenvalues --   -0.66543  -0.65226  -0.62998  -0.62586  -0.61722
 Alpha  occ. eigenvalues --   -0.61138  -0.60872  -0.59739  -0.59191  -0.58997
 Alpha  occ. eigenvalues --   -0.58394  -0.58368  -0.58322  -0.58052  -0.57316
 Alpha  occ. eigenvalues --   -0.56808  -0.56741  -0.56513  -0.56423  -0.56362
 Alpha  occ. eigenvalues --   -0.56232  -0.55778  -0.55402  -0.55272  -0.55257
 Alpha  occ. eigenvalues --   -0.55130  -0.54653  -0.54402  -0.54201  -0.53845
 Alpha  occ. eigenvalues --   -0.53441  -0.52513  -0.52023  -0.51517  -0.51253
 Alpha  occ. eigenvalues --   -0.50373  -0.50150  -0.50136  -0.49893  -0.49305
 Alpha  occ. eigenvalues --   -0.49134  -0.48900  -0.48226  -0.48012  -0.47978
 Alpha  occ. eigenvalues --   -0.47934  -0.46644  -0.44866  -0.42362  -0.42212
 Alpha  occ. eigenvalues --   -0.41868  -0.41338  -0.41154  -0.41019  -0.40760
 Alpha  occ. eigenvalues --   -0.39193  -0.38396  -0.38260  -0.34355  -0.33231
 Alpha virt. eigenvalues --   -0.09481  -0.07797  -0.07565  -0.05805  -0.05692
 Alpha virt. eigenvalues --   -0.05642  -0.05364  -0.05339  -0.05172  -0.05043
 Alpha virt. eigenvalues --   -0.02392  -0.01131   0.00718   0.00903   0.00923

  Beta  occ. eigenvalues --  -18.96777 -18.96715 -18.96593 -18.96587 -14.24337
  Beta  occ. eigenvalues --  -14.24005 -10.14077 -10.14018 -10.13944 -10.13873
  Beta  occ. eigenvalues --  -10.13869 -10.13787 -10.12288 -10.12251 -10.12063
  Beta  occ. eigenvalues --  -10.12057 -10.10360 -10.10236 -10.09273 -10.09270
  Beta  occ. eigenvalues --  -10.09213 -10.09206 -10.09176 -10.09163 -10.09047
  Beta  occ. eigenvalues --  -10.09037 -10.08925 -10.08769 -10.08659 -10.08608
  Beta  occ. eigenvalues --  -10.08603 -10.08598 -10.08508 -10.08507 -10.08394
  Beta  occ. eigenvalues --  -10.08291 -10.08162 -10.08155 -10.07712 -10.07705
  Beta  occ. eigenvalues --  -10.07576 -10.07574  -1.16061  -1.15996  -1.15886
  Beta  occ. eigenvalues --   -1.15881  -1.09869  -1.09632  -1.00002  -0.98396
  Beta  occ. eigenvalues --   -0.98098  -0.97915  -0.96665  -0.95999  -0.91410
  Beta  occ. eigenvalues --   -0.89043  -0.88700  -0.88407  -0.87874  -0.87711
  Beta  occ. eigenvalues --   -0.87572  -0.87395  -0.87218  -0.87037  -0.84488
  Beta  occ. eigenvalues --   -0.82717  -0.78486  -0.77586  -0.76835  -0.76526
  Beta  occ. eigenvalues --   -0.75740  -0.75545  -0.75204  -0.74639  -0.73590
  Beta  occ. eigenvalues --   -0.73382  -0.71678  -0.71076  -0.69068  -0.68664
  Beta  occ. eigenvalues --   -0.68511  -0.68433  -0.68030  -0.67836  -0.67030
  Beta  occ. eigenvalues --   -0.66431  -0.65129  -0.62769  -0.62388  -0.61658
  Beta  occ. eigenvalues --   -0.61083  -0.60818  -0.59588  -0.59095  -0.58921
  Beta  occ. eigenvalues --   -0.58326  -0.58318  -0.58255  -0.58006  -0.57269
  Beta  occ. eigenvalues --   -0.56750  -0.56682  -0.56464  -0.56384  -0.56316
  Beta  occ. eigenvalues --   -0.56184  -0.55697  -0.55235  -0.55082  -0.55060
  Beta  occ. eigenvalues --   -0.54963  -0.54530  -0.54243  -0.53990  -0.53656
  Beta  occ. eigenvalues --   -0.53196  -0.52264  -0.51861  -0.51457  -0.51194
  Beta  occ. eigenvalues --   -0.50128  -0.50044  -0.50013  -0.49626  -0.49045
  Beta  occ. eigenvalues --   -0.48895  -0.48717  -0.48164  -0.47970  -0.47916
  Beta  occ. eigenvalues --   -0.47897  -0.46280  -0.43950  -0.42223  -0.42080
  Beta  occ. eigenvalues --   -0.41229  -0.41083  -0.41040  -0.40864  -0.40344
  Beta  occ. eigenvalues --   -0.37870  -0.37815  -0.37747  -0.30535
  Beta virt. eigenvalues --   -0.22217  -0.09140  -0.07557  -0.07325  -0.05534
  Beta virt. eigenvalues --   -0.05410  -0.05363  -0.05053  -0.04959  -0.04895
  Beta virt. eigenvalues --   -0.04737  -0.01855  -0.00521   0.00737   0.00920

 Mulliken charges and spin densities:
               1          2
     1  C   -0.135884   0.030356
     2  C    0.015425   0.034612
     3  C   -0.135408  -0.002326
     4  C   -0.135782   0.030286
     5  C    0.032484   0.055799
     6  C   -0.135365  -0.002435
     7  H    0.143330  -0.000236
     8  H    0.169934  -0.001338
     9  H    0.144881  -0.000242
    10  C    0.031174   0.060718
    11  C   -0.135534  -0.004645
    12  C   -0.135259  -0.005826
    13  C   -0.132385   0.033376
    14  C   -0.136292   0.034014
    15  C    0.009962   0.033348
    16  H    0.145565  -0.000122
    17  H    0.145729  -0.000071
    18  H    0.170214  -0.001484
    19  H    0.169586  -0.001489
    20  H    0.169679  -0.001341
    21  N    0.041707   0.180171
    22  C   -0.123630  -0.005643
    23  C   -0.048309   0.036723
    24  C   -0.077839   0.039817
    25  C   -0.194547  -0.016813
    26  C   -0.163980  -0.019484
    27  C    0.124484   0.045478
    28  H    0.153558  -0.001573
    29  H    0.154245  -0.002014
    30  H    0.145341   0.000833
    31  H    0.130608   0.000986
    32  C   -0.117283  -0.005271
    33  C   -0.069740   0.040978
    34  C   -0.060833   0.036235
    35  C   -0.160390  -0.016465
    36  C   -0.191993  -0.019892
    37  C    0.121636   0.045974
    38  H    0.154791  -0.001835
    39  H    0.153683  -0.001796
    40  H    0.134066   0.000746
    41  H    0.142833   0.001055
    42  N    0.039791   0.169325
    43  C   -0.126133  -0.005656
    44  C   -0.069734   0.038022
    45  C   -0.055935   0.033512
    46  C   -0.162110  -0.015456
    47  C   -0.193535  -0.018331
    48  C    0.121829   0.042143
    49  H    0.153526  -0.001693
    50  H    0.151891  -0.001675
    51  H    0.133263   0.000702
    52  H    0.141541   0.000992
    53  C   -0.124472  -0.005708
    54  C   -0.070404   0.038143
    55  C   -0.057114   0.033612
    56  C   -0.162076  -0.015503
    57  C   -0.193451  -0.018405
    58  C    0.121644   0.042266
    59  H    0.153541  -0.001698
    60  H    0.152451  -0.001679
    61  H    0.133143   0.000704
    62  H    0.141752   0.000993
    63  O   -0.217288   0.013808
    64  H    0.280446  -0.000340
    65  O   -0.217292   0.013781
    66  H    0.280515  -0.000339
    67  O   -0.215188   0.014892
    68  H    0.279961  -0.000367
    69  O   -0.216021   0.015168
    70  H    0.280998  -0.000375
 Sum of Mulliken charges =   1.00000   1.00000

 Dipole moment (field-independent basis, Debye):
    X=              1.0731    Y=             -0.4183    Z=              2.0823  Tot=              2.3796
 Quadrupole moment (field-independent basis, Debye-Ang):
   XX=            -17.4263   YY=           -191.8565   ZZ=           -231.1838
   XY=             -5.4430   XZ=            -14.9447   YZ=            -12.4654

 Normal termination of Gaussian 16 at Mon Jan 18 15:13:49 2021.
