 Gaussian 16, Revision A.03,
 Gaussian 16:  EM64L-G16RevA.03 25-Dec-2016

 ----------------------------------------------------------------------
 #P LC-wHPBE/TZVP iop(3/107=0176300000, 3/108=0176300000) scf=(conver=6
 ,fermi,ndamp=35,noincfock,novaracc,vshift=500,xqc)
 ----------------------------------------------------------------------

 -------------
 H28 C36 N2 O4
 -------------
 Symbolic Z-matrix:
 Charge =  1 Multiplicity = 2

                         Standard orientation:
 ---------------------------------------------------------------------
 Center     Atomic      Atomic             Coordinates (Angstroms)
 Number     Number       Type             X           Y           Z
 ---------------------------------------------------------------------
      1          6           0        2.858499   -1.142103    0.374244
      2          6           0        3.579312    0.001087   -0.003359
      3          6           0        1.469111   -1.138314    0.362939
      4          6           0        2.858875    1.143435   -0.384264
      5          6           0        0.739097   -0.000512   -0.009817
      6          6           0        1.469477    1.138129   -0.379362
      7          1           0        0.937192   -2.033473    0.688815
      8          1           0        3.397761    2.037798   -0.696269
      9          1           0        0.938071    2.032504   -0.708142
     10          6           0       -0.742883   -0.001384   -0.012974
     11          6           0       -1.474511    1.130858    0.372988
     12          6           0       -1.471490   -1.134716   -0.402503
     13          6           0       -2.864100    1.134318    0.378218
     14          6           0       -2.860735   -1.140009   -0.413286
     15          6           0       -3.582937   -0.003346   -0.018716
     16          1           0       -0.944110    2.021230    0.714069
     17          1           0       -0.938347   -2.023708   -0.742945
     18          1           0       -3.404263    2.023625    0.702274
     19          1           0       -3.398798   -2.029064   -0.741639
     20          1           0        3.397024   -2.035914    0.688457
     21          7           0       -4.995311   -0.005703   -0.022721
     22          6           0       -5.713915   -1.185510    0.315496
     23          6           0       -6.824749   -1.586223   -0.439679
     24          6           0       -5.336499   -1.964565    1.414395
     25          6           0       -7.543368   -2.726588   -0.103607
     26          6           0       -6.037549   -3.122582    1.739703
     27          6           0       -7.148838   -3.505710    0.986012
     28          1           0       -7.129554   -0.987536   -1.298124
     29          1           0       -4.477812   -1.664402    2.014832
     30          1           0       -8.408278   -3.036049   -0.689802
     31          1           0       -5.724570   -3.720924    2.598980
     32          6           0       -5.717056    1.178925   -0.336296
     33          6           0       -6.821807    1.565845    0.429047
     34          6           0       -5.346761    1.975943   -1.428789
     35          6           0       -7.543924    2.712298    0.107280
     36          6           0       -6.047800    3.134194   -1.738027
     37          6           0       -7.155651    3.506391   -0.973222
     38          1           0       -7.124426    0.956025    1.280239
     39          1           0       -4.491517    1.682511   -2.037555
     40          1           0       -8.407549    2.995534    0.714075
     41          1           0       -5.757368    3.754511   -2.585554
     42          7           0        4.991423    0.001999   -0.000060
     43          6           0        5.710552    1.183762    0.330631
     44          6           0        6.812654    1.584277   -0.431608
     45          6           0        5.340603    1.964026    1.435102
     46          6           0        7.532572    2.727778   -0.095183
     47          6           0        6.039551    3.119564    1.759528
     48          6           0        7.144632    3.505373    0.997606
     49          1           0        7.113605    0.987752   -1.292811
     50          1           0        4.486562    1.660323    2.040543
     51          1           0        8.393358    3.022713   -0.700462
     52          1           0        5.749024    3.727528    2.615933
     53          6           0        5.713955   -1.178690   -0.326778
     54          6           0        6.814458   -1.575861    0.439552
     55          6           0        5.349314   -1.961286   -1.431414
     56          6           0        7.537888   -2.718318    0.107058
     57          6           0        6.051756   -3.115796   -1.751909
     58          6           0        7.155153   -3.498257   -0.985865
     59          1           0        7.111509   -0.977436    1.300789
     60          1           0        4.496830   -1.660119   -2.040298
     61          1           0        8.397429   -3.010471    0.715458
     62          1           0        5.765438   -3.725350   -2.608604
     63          8           0        7.820509   -4.641023   -1.355507
     64          1           0        8.555246   -4.788670   -0.739309
     65          8           0        7.806379    4.648952    1.371018
     66          1           0        8.541702    4.800061    0.756350
     67          8           0       -7.887404   -4.628973    1.265636
     68          1           0       -7.503413   -5.071476    2.038990
     69          8           0       -7.819547    4.653451   -1.332021
     70          1           0       -8.560354    4.790553   -0.720672
 ---------------------------------------------------------------------

 SCF Done:  E(ULC-wHPBE) =  -1797.75997770     A.U. after   24 cycles

 The electronic state is 2-A.
 Alpha  occ. eigenvalues --  -18.96847 -18.96785 -18.96659 -18.96652 -14.24775
 Alpha  occ. eigenvalues --  -14.24415 -10.14168 -10.14110 -10.14003 -10.13959
 Alpha  occ. eigenvalues --  -10.13955 -10.13848 -10.12296 -10.12259 -10.12070
 Alpha  occ. eigenvalues --  -10.12064 -10.10478 -10.10347 -10.09322 -10.09317
 Alpha  occ. eigenvalues --  -10.09282 -10.09280 -10.09215 -10.09201 -10.09125
 Alpha  occ. eigenvalues --  -10.09116 -10.09016 -10.08857 -10.08745 -10.08691
 Alpha  occ. eigenvalues --  -10.08685 -10.08681 -10.08588 -10.08588 -10.08404
 Alpha  occ. eigenvalues --  -10.08306 -10.08177 -10.08169 -10.07725 -10.07714
 Alpha  occ. eigenvalues --  -10.07586 -10.07583  -1.16168  -1.16105  -1.15987
 Alpha  occ. eigenvalues --   -1.15981  -1.10399  -1.10129  -1.00198  -0.98567
 Alpha  occ. eigenvalues --   -0.98215  -0.98024  -0.96821  -0.96177  -0.91642
 Alpha  occ. eigenvalues --   -0.89151  -0.88811  -0.88541  -0.87973  -0.87799
 Alpha  occ. eigenvalues --   -0.87660  -0.87489  -0.87320  -0.87168  -0.84699
 Alpha  occ. eigenvalues --   -0.83025  -0.78596  -0.77729  -0.76964  -0.76658
 Alpha  occ. eigenvalues --   -0.75854  -0.75680  -0.75314  -0.74757  -0.73720
 Alpha  occ. eigenvalues --   -0.73522  -0.71786  -0.71182  -0.69169  -0.68765
 Alpha  occ. eigenvalues --   -0.68592  -0.68510  -0.68104  -0.67937  -0.67150
 Alpha  occ. eigenvalues --   -0.66566  -0.65252  -0.63024  -0.62610  -0.61747
 Alpha  occ. eigenvalues --   -0.61163  -0.60895  -0.59764  -0.59216  -0.59022
 Alpha  occ. eigenvalues --   -0.58417  -0.58392  -0.58346  -0.58075  -0.57341
 Alpha  occ. eigenvalues --   -0.56832  -0.56764  -0.56536  -0.56447  -0.56385
 Alpha  occ. eigenvalues --   -0.56255  -0.55800  -0.55426  -0.55297  -0.55281
 Alpha  occ. eigenvalues --   -0.55154  -0.54676  -0.54426  -0.54224  -0.53869
 Alpha  occ. eigenvalues --   -0.53464  -0.52535  -0.52045  -0.51539  -0.51274
 Alpha  occ. eigenvalues --   -0.50396  -0.50172  -0.50159  -0.49916  -0.49328
 Alpha  occ. eigenvalues --   -0.49156  -0.48922  -0.48247  -0.48033  -0.47998
 Alpha  occ. eigenvalues --   -0.47954  -0.46666  -0.44888  -0.42381  -0.42231
 Alpha  occ. eigenvalues --   -0.41888  -0.41357  -0.41172  -0.41037  -0.40778
 Alpha  occ. eigenvalues --   -0.39210  -0.38413  -0.38276  -0.34371  -0.33246
 Alpha virt. eigenvalues --   -0.09471  -0.07784  -0.07553  -0.05792  -0.05679
 Alpha virt. eigenvalues --   -0.05628  -0.05351  -0.05326  -0.05159  -0.05028
 Alpha virt. eigenvalues --   -0.02378  -0.01116   0.00732   0.00918   0.00937

  Beta  occ. eigenvalues --  -18.96803 -18.96742 -18.96619 -18.96613 -14.24367
  Beta  occ. eigenvalues --  -14.24033 -10.14106 -10.14048 -10.13976 -10.13901
  Beta  occ. eigenvalues --  -10.13897 -10.13818 -10.12318 -10.12280 -10.12091
  Beta  occ. eigenvalues --  -10.12085 -10.10391 -10.10266 -10.09304 -10.09301
  Beta  occ. eigenvalues --  -10.09244 -10.09236 -10.09207 -10.09193 -10.09076
  Beta  occ. eigenvalues --  -10.09067 -10.08955 -10.08798 -10.08689 -10.08636
  Beta  occ. eigenvalues --  -10.08631 -10.08627 -10.08536 -10.08535 -10.08423
  Beta  occ. eigenvalues --  -10.08320 -10.08190 -10.08183 -10.07740 -10.07734
  Beta  occ. eigenvalues --  -10.07604 -10.07601  -1.16089  -1.16024  -1.15913
  Beta  occ. eigenvalues --   -1.15908  -1.09900  -1.09662  -1.00035  -0.98427
  Beta  occ. eigenvalues --   -0.98128  -0.97945  -0.96695  -0.96029  -0.91440
  Beta  occ. eigenvalues --   -0.89073  -0.88730  -0.88436  -0.87903  -0.87740
  Beta  occ. eigenvalues --   -0.87601  -0.87424  -0.87247  -0.87066  -0.84516
  Beta  occ. eigenvalues --   -0.82745  -0.78514  -0.77614  -0.76862  -0.76553
  Beta  occ. eigenvalues --   -0.75766  -0.75572  -0.75231  -0.74666  -0.73617
  Beta  occ. eigenvalues --   -0.73409  -0.71704  -0.71102  -0.69094  -0.68690
  Beta  occ. eigenvalues --   -0.68537  -0.68458  -0.68055  -0.67861  -0.67055
  Beta  occ. eigenvalues --   -0.66455  -0.65155  -0.62794  -0.62412  -0.61683
  Beta  occ. eigenvalues --   -0.61108  -0.60842  -0.59613  -0.59120  -0.58946
  Beta  occ. eigenvalues --   -0.58349  -0.58341  -0.58278  -0.58029  -0.57294
  Beta  occ. eigenvalues --   -0.56774  -0.56705  -0.56487  -0.56408  -0.56339
  Beta  occ. eigenvalues --   -0.56207  -0.55720  -0.55260  -0.55107  -0.55084
  Beta  occ. eigenvalues --   -0.54987  -0.54553  -0.54267  -0.54012  -0.53681
  Beta  occ. eigenvalues --   -0.53219  -0.52286  -0.51883  -0.51479  -0.51216
  Beta  occ. eigenvalues --   -0.50150  -0.50066  -0.50036  -0.49649  -0.49068
  Beta  occ. eigenvalues --   -0.48916  -0.48739  -0.48185  -0.47991  -0.47936
  Beta  occ. eigenvalues --   -0.47917  -0.46301  -0.43969  -0.42242  -0.42098
  Beta  occ. eigenvalues --   -0.41248  -0.41100  -0.41058  -0.40881  -0.40360
  Beta  occ. eigenvalues --   -0.37885  -0.37829  -0.37762  -0.30543
  Beta virt. eigenvalues --   -0.22218  -0.09130  -0.07545  -0.07312  -0.05520
  Beta virt. eigenvalues --   -0.05396  -0.05349  -0.05039  -0.04945  -0.04880
  Beta virt. eigenvalues --   -0.04723  -0.01839  -0.00505   0.00751   0.00935

 Mulliken charges and spin densities:
               1          2
     1  C   -0.135896   0.030332
     2  C    0.015401   0.034678
     3  C   -0.135448  -0.002320
     4  C   -0.135795   0.030261
     5  C    0.032468   0.055817
     6  C   -0.135405  -0.002429
     7  H    0.143385  -0.000237
     8  H    0.170002  -0.001337
     9  H    0.144935  -0.000244
    10  C    0.031150   0.060777
    11  C   -0.135575  -0.004663
    12  C   -0.135300  -0.005845
    13  C   -0.132392   0.033378
    14  C   -0.136298   0.034018
    15  C    0.009934   0.033400
    16  H    0.145625  -0.000123
    17  H    0.145788  -0.000071
    18  H    0.170284  -0.001485
    19  H    0.169656  -0.001490
    20  H    0.169748  -0.001340
    21  N    0.041613   0.180296
    22  C   -0.123662  -0.005709
    23  C   -0.048306   0.036764
    24  C   -0.077842   0.039856
    25  C   -0.194610  -0.016863
    26  C   -0.164049  -0.019539
    27  C    0.124476   0.045512
    28  H    0.153616  -0.001574
    29  H    0.154299  -0.002016
    30  H    0.145383   0.000835
    31  H    0.130650   0.000988
    32  C   -0.117313  -0.005337
    33  C   -0.069749   0.041020
    34  C   -0.060826   0.036273
    35  C   -0.160457  -0.016517
    36  C   -0.192057  -0.019947
    37  C    0.121627   0.046008
    38  H    0.154848  -0.001837
    39  H    0.153738  -0.001798
    40  H    0.134108   0.000748
    41  H    0.142875   0.001058
    42  N    0.039681   0.169391
    43  C   -0.126160  -0.005716
    44  C   -0.069744   0.038050
    45  C   -0.055930   0.033537
    46  C   -0.162179  -0.015499
    47  C   -0.193601  -0.018377
    48  C    0.121819   0.042161
    49  H    0.153579  -0.001694
    50  H    0.151940  -0.001676
    51  H    0.133301   0.000704
    52  H    0.141578   0.000993
    53  C   -0.124500  -0.005769
    54  C   -0.070414   0.038171
    55  C   -0.057109   0.033637
    56  C   -0.162146  -0.015546
    57  C   -0.193517  -0.018451
    58  C    0.121634   0.042285
    59  H    0.153594  -0.001699
    60  H    0.152501  -0.001681
    61  H    0.133181   0.000705
    62  H    0.141789   0.000995
    63  O   -0.217303   0.013794
    64  H    0.280443  -0.000339
    65  O   -0.217307   0.013767
    66  H    0.280512  -0.000338
    67  O   -0.215198   0.014882
    68  H    0.279960  -0.000367
    69  O   -0.216032   0.015157
    70  H    0.280997  -0.000375
 Sum of Mulliken charges =   1.00000   1.00000

 Dipole moment (field-independent basis, Debye):
    X=              1.0706    Y=             -0.4183    Z=              2.0825  Tot=              2.3786
 Quadrupole moment (field-independent basis, Debye-Ang):
   XX=            -17.4623   YY=           -191.8694   ZZ=           -231.1819
   XY=             -5.4432   XZ=            -14.9458   YZ=            -12.4671

 Normal termination of Gaussian 16 at Mon Jan 18 13:18:51 2021.
