 Gaussian 16, Revision A.03,
 Gaussian 16:  EM64L-G16RevA.03 25-Dec-2016

 ----------------------------------------------------------------------
 #P LC-wHPBE/TZVP iop(3/107=0156200000, 3/108=0156200000) scf=(conver=6
 ,fermi,ndamp=35,noincfock,novaracc,vshift=500,xqc)
 ----------------------------------------------------------------------

 -------------
 H28 C36 N2 O4
 -------------
 Symbolic Z-matrix:
 Charge =  1 Multiplicity = 2

                         Standard orientation:
 ---------------------------------------------------------------------
 Center     Atomic      Atomic             Coordinates (Angstroms)
 Number     Number       Type             X           Y           Z
 ---------------------------------------------------------------------
      1          6           0        2.858499   -1.142103    0.374244
      2          6           0        3.579312    0.001087   -0.003359
      3          6           0        1.469111   -1.138314    0.362939
      4          6           0        2.858875    1.143435   -0.384264
      5          6           0        0.739097   -0.000512   -0.009817
      6          6           0        1.469477    1.138129   -0.379362
      7          1           0        0.937192   -2.033473    0.688815
      8          1           0        3.397761    2.037798   -0.696269
      9          1           0        0.938071    2.032504   -0.708142
     10          6           0       -0.742883   -0.001384   -0.012974
     11          6           0       -1.474511    1.130858    0.372988
     12          6           0       -1.471490   -1.134716   -0.402503
     13          6           0       -2.864100    1.134318    0.378218
     14          6           0       -2.860735   -1.140009   -0.413286
     15          6           0       -3.582937   -0.003346   -0.018716
     16          1           0       -0.944110    2.021230    0.714069
     17          1           0       -0.938347   -2.023708   -0.742945
     18          1           0       -3.404263    2.023625    0.702274
     19          1           0       -3.398798   -2.029064   -0.741639
     20          1           0        3.397024   -2.035914    0.688457
     21          7           0       -4.995311   -0.005703   -0.022721
     22          6           0       -5.713915   -1.185510    0.315496
     23          6           0       -6.824749   -1.586223   -0.439679
     24          6           0       -5.336499   -1.964565    1.414395
     25          6           0       -7.543368   -2.726588   -0.103607
     26          6           0       -6.037549   -3.122582    1.739703
     27          6           0       -7.148838   -3.505710    0.986012
     28          1           0       -7.129554   -0.987536   -1.298124
     29          1           0       -4.477812   -1.664402    2.014832
     30          1           0       -8.408278   -3.036049   -0.689802
     31          1           0       -5.724570   -3.720924    2.598980
     32          6           0       -5.717056    1.178925   -0.336296
     33          6           0       -6.821807    1.565845    0.429047
     34          6           0       -5.346761    1.975943   -1.428789
     35          6           0       -7.543924    2.712298    0.107280
     36          6           0       -6.047800    3.134194   -1.738027
     37          6           0       -7.155651    3.506391   -0.973222
     38          1           0       -7.124426    0.956025    1.280239
     39          1           0       -4.491517    1.682511   -2.037555
     40          1           0       -8.407549    2.995534    0.714075
     41          1           0       -5.757368    3.754511   -2.585554
     42          7           0        4.991423    0.001999   -0.000060
     43          6           0        5.710552    1.183762    0.330631
     44          6           0        6.812654    1.584277   -0.431608
     45          6           0        5.340603    1.964026    1.435102
     46          6           0        7.532572    2.727778   -0.095183
     47          6           0        6.039551    3.119564    1.759528
     48          6           0        7.144632    3.505373    0.997606
     49          1           0        7.113605    0.987752   -1.292811
     50          1           0        4.486562    1.660323    2.040543
     51          1           0        8.393358    3.022713   -0.700462
     52          1           0        5.749024    3.727528    2.615933
     53          6           0        5.713955   -1.178690   -0.326778
     54          6           0        6.814458   -1.575861    0.439552
     55          6           0        5.349314   -1.961286   -1.431414
     56          6           0        7.537888   -2.718318    0.107058
     57          6           0        6.051756   -3.115796   -1.751909
     58          6           0        7.155153   -3.498257   -0.985865
     59          1           0        7.111509   -0.977436    1.300789
     60          1           0        4.496830   -1.660119   -2.040298
     61          1           0        8.397429   -3.010471    0.715458
     62          1           0        5.765438   -3.725350   -2.608604
     63          8           0        7.820509   -4.641023   -1.355507
     64          1           0        8.555246   -4.788670   -0.739309
     65          8           0        7.806379    4.648952    1.371018
     66          1           0        8.541702    4.800061    0.756350
     67          8           0       -7.887404   -4.628973    1.265636
     68          1           0       -7.503413   -5.071476    2.038990
     69          8           0       -7.819547    4.653451   -1.332021
     70          1           0       -8.560354    4.790553   -0.720672
 ---------------------------------------------------------------------

 SCF Done:  E(ULC-wHPBE) =  -1797.71759241     A.U. after   23 cycles

 The electronic state is 2-A.
 Alpha  occ. eigenvalues --  -18.95780 -18.95719 -18.95637 -18.95631 -14.23564
 Alpha  occ. eigenvalues --  -14.23286 -10.12997 -10.12941 -10.12834 -10.12830
 Alpha  occ. eigenvalues --  -10.12727 -10.12607 -10.11126 -10.11090 -10.10950
 Alpha  occ. eigenvalues --  -10.10944 -10.09213 -10.09109 -10.08086 -10.08080
 Alpha  occ. eigenvalues --  -10.08044 -10.08042 -10.07995 -10.07981 -10.07927
 Alpha  occ. eigenvalues --  -10.07917 -10.07836 -10.07685 -10.07569 -10.07566
 Alpha  occ. eigenvalues --  -10.07561 -10.07509 -10.07459 -10.07458 -10.07258
 Alpha  occ. eigenvalues --  -10.07162 -10.07074 -10.07067 -10.06584 -10.06573
 Alpha  occ. eigenvalues --  -10.06486 -10.06483  -1.15037  -1.14975  -1.14897
 Alpha  occ. eigenvalues --   -1.14891  -1.09132  -1.08925  -0.98900  -0.97301
 Alpha  occ. eigenvalues --   -0.96993  -0.96848  -0.95613  -0.94969  -0.90398
 Alpha  occ. eigenvalues --   -0.87926  -0.87624  -0.87351  -0.86779  -0.86630
 Alpha  occ. eigenvalues --   -0.86490  -0.86329  -0.86149  -0.85994  -0.83554
 Alpha  occ. eigenvalues --   -0.81880  -0.77479  -0.76591  -0.75870  -0.75562
 Alpha  occ. eigenvalues --   -0.74778  -0.74586  -0.74217  -0.73661  -0.72626
 Alpha  occ. eigenvalues --   -0.72408  -0.70721  -0.70109  -0.68084  -0.67723
 Alpha  occ. eigenvalues --   -0.67555  -0.67492  -0.67098  -0.66906  -0.66145
 Alpha  occ. eigenvalues --   -0.65601  -0.64195  -0.61976  -0.61622  -0.60723
 Alpha  occ. eigenvalues --   -0.60162  -0.59924  -0.58730  -0.58191  -0.57992
 Alpha  occ. eigenvalues --   -0.57466  -0.57415  -0.57367  -0.57138  -0.56319
 Alpha  occ. eigenvalues --   -0.55838  -0.55810  -0.55595  -0.55494  -0.55453
 Alpha  occ. eigenvalues --   -0.55310  -0.54878  -0.54425  -0.54299  -0.54279
 Alpha  occ. eigenvalues --   -0.54172  -0.53723  -0.53445  -0.53287  -0.52876
 Alpha  occ. eigenvalues --   -0.52500  -0.51608  -0.51122  -0.50640  -0.50393
 Alpha  occ. eigenvalues --   -0.49468  -0.49262  -0.49225  -0.48990  -0.48376
 Alpha  occ. eigenvalues --   -0.48248  -0.47993  -0.47370  -0.47170  -0.47156
 Alpha  occ. eigenvalues --   -0.47126  -0.45756  -0.43986  -0.41570  -0.41449
 Alpha  occ. eigenvalues --   -0.41074  -0.40582  -0.40437  -0.40295  -0.40048
 Alpha  occ. eigenvalues --   -0.38485  -0.37695  -0.37601  -0.33733  -0.32616
 Alpha virt. eigenvalues --   -0.09906  -0.08311  -0.08102  -0.06344  -0.06250
 Alpha virt. eigenvalues --   -0.06223  -0.05920  -0.05891  -0.05750  -0.05661
 Alpha virt. eigenvalues --   -0.02985  -0.01733   0.00123   0.00277   0.00318

  Beta  occ. eigenvalues --  -18.95736 -18.95674 -18.95596 -18.95589 -14.23168
  Beta  occ. eigenvalues --  -14.22910 -10.12936 -10.12879 -10.12777 -10.12773
  Beta  occ. eigenvalues --  -10.12702 -10.12580 -10.11143 -10.11108 -10.10967
  Beta  occ. eigenvalues --  -10.10961 -10.09130 -10.09030 -10.08063 -10.08060
  Beta  occ. eigenvalues --  -10.08010 -10.08002 -10.07986 -10.07973 -10.07879
  Beta  occ. eigenvalues --  -10.07869 -10.07777 -10.07627 -10.07515 -10.07512
  Beta  occ. eigenvalues --  -10.07507 -10.07458 -10.07408 -10.07407 -10.07274
  Beta  occ. eigenvalues --  -10.07174 -10.07085 -10.07078 -10.06597 -10.06591
  Beta  occ. eigenvalues --  -10.06502 -10.06499  -1.14956  -1.14893  -1.14821
  Beta  occ. eigenvalues --   -1.14816  -1.08645  -1.08463  -0.98741  -0.97166
  Beta  occ. eigenvalues --   -0.96905  -0.96767  -0.95489  -0.94823  -0.90206
  Beta  occ. eigenvalues --   -0.87847  -0.87541  -0.87252  -0.86710  -0.86571
  Beta  occ. eigenvalues --   -0.86432  -0.86263  -0.86073  -0.85895  -0.83376
  Beta  occ. eigenvalues --   -0.81615  -0.77397  -0.76481  -0.75770  -0.75460
  Beta  occ. eigenvalues --   -0.74694  -0.74476  -0.74134  -0.73571  -0.72525
  Beta  occ. eigenvalues --   -0.72298  -0.70641  -0.70029  -0.68011  -0.67650
  Beta  occ. eigenvalues --   -0.67502  -0.67439  -0.67052  -0.66828  -0.66051
  Beta  occ. eigenvalues --   -0.65491  -0.64100  -0.61756  -0.61432  -0.60661
  Beta  occ. eigenvalues --   -0.60107  -0.59871  -0.58584  -0.58100  -0.57918
  Beta  occ. eigenvalues --   -0.57400  -0.57365  -0.57301  -0.57091  -0.56273
  Beta  occ. eigenvalues --   -0.55773  -0.55760  -0.55552  -0.55456  -0.55410
  Beta  occ. eigenvalues --   -0.55263  -0.54804  -0.54257  -0.54102  -0.54089
  Beta  occ. eigenvalues --   -0.54002  -0.53607  -0.53305  -0.53093  -0.52678
  Beta  occ. eigenvalues --   -0.52252  -0.51376  -0.50974  -0.50581  -0.50336
  Beta  occ. eigenvalues --   -0.49234  -0.49146  -0.49110  -0.48730  -0.48137
  Beta  occ. eigenvalues --   -0.48025  -0.47828  -0.47311  -0.47124  -0.47101
  Beta  occ. eigenvalues --   -0.47089  -0.45423  -0.43178  -0.41424  -0.41306
  Beta  occ. eigenvalues --   -0.40473  -0.40375  -0.40317  -0.40148  -0.39674
  Beta  occ. eigenvalues --   -0.37319  -0.37180  -0.37119  -0.30213
  Beta virt. eigenvalues --   -0.22183  -0.09545  -0.08091  -0.07882  -0.06087
  Beta virt. eigenvalues --   -0.06003  -0.05934  -0.05639  -0.05551  -0.05513
  Beta virt. eigenvalues --   -0.05315  -0.02492  -0.01184   0.00141   0.00294

 Mulliken charges and spin densities:
               1          2
     1  C   -0.135540   0.031081
     2  C    0.016081   0.032143
     3  C   -0.133921  -0.002441
     4  C   -0.135438   0.031016
     5  C    0.032905   0.054879
     6  C   -0.133879  -0.002544
     7  H    0.141400  -0.000193
     8  H    0.167463  -0.001357
     9  H    0.142955  -0.000199
    10  C    0.031887   0.058348
    11  C   -0.134025  -0.003933
    12  C   -0.133740  -0.005084
    13  C   -0.132228   0.033168
    14  C   -0.136209   0.033743
    15  C    0.010749   0.031351
    16  H    0.143452  -0.000117
    17  H    0.143617  -0.000067
    18  H    0.167661  -0.001462
    19  H    0.167034  -0.001466
    20  H    0.167206  -0.001360
    21  N    0.045079   0.175098
    22  C   -0.122574  -0.003170
    23  C   -0.048690   0.035267
    24  C   -0.077949   0.038440
    25  C   -0.192012  -0.014992
    26  C   -0.161201  -0.017438
    27  C    0.124599   0.044355
    28  H    0.151518  -0.001514
    29  H    0.152396  -0.001930
    30  H    0.143935   0.000758
    31  H    0.129190   0.000892
    32  C   -0.116289  -0.002781
    33  C   -0.069614   0.039477
    34  C   -0.061356   0.034864
    35  C   -0.157707  -0.014579
    36  C   -0.189411  -0.017858
    37  C    0.121774   0.044852
    38  H    0.152813  -0.001773
    39  H    0.151780  -0.001714
    40  H    0.132625   0.000667
    41  H    0.141459   0.000965
    42  N    0.043782   0.166538
    43  C   -0.125226  -0.003321
    44  C   -0.069574   0.037051
    45  C   -0.056382   0.032644
    46  C   -0.159326  -0.013904
    47  C   -0.190863  -0.016639
    48  C    0.122040   0.041610
    49  H    0.151690  -0.001655
    50  H    0.150208  -0.001615
    51  H    0.131982   0.000639
    52  H    0.140360   0.000918
    53  C   -0.123564  -0.003370
    54  C   -0.070232   0.037170
    55  C   -0.057561   0.032742
    56  C   -0.159295  -0.013946
    57  C   -0.190783  -0.016710
    58  C    0.121859   0.041730
    59  H    0.151702  -0.001660
    60  H    0.150767  -0.001618
    61  H    0.131861   0.000640
    62  H    0.140571   0.000919
    63  O   -0.216794   0.014443
    64  H    0.280595  -0.000354
    65  O   -0.216796   0.014415
    66  H    0.280664  -0.000353
    67  O   -0.214893   0.015382
    68  H    0.280040  -0.000378
    69  O   -0.215692   0.015677
    70  H    0.281066  -0.000386
 Sum of Mulliken charges =   1.00000   1.00000

 Dipole moment (field-independent basis, Debye):
    X=              1.1726    Y=             -0.4160    Z=              2.0768  Tot=              2.4210
 Quadrupole moment (field-independent basis, Debye-Ang):
   XX=            -15.9355   YY=           -191.3369   ZZ=           -231.2573
   XY=             -5.4368   XZ=            -14.9025   YZ=            -12.3971

 Normal termination of Gaussian 16 at Mon Jan 18 07:52:47 2021.
