 Gaussian 16, Revision A.03,
 Gaussian 16:  EM64L-G16RevA.03 25-Dec-2016

 ----------------------------------------------------------------------
 #P LC-wHPBE/TZVP iop(3/107=0175800000, 3/108=0175800000) scf=(conver=6
 ,fermi,ndamp=35,noincfock,novaracc,vshift=500,xqc)
 ----------------------------------------------------------------------

 -------------
 H28 C36 N2 O4
 -------------
 Symbolic Z-matrix:
 Charge =  0 Multiplicity = 1

                         Standard orientation:
 ---------------------------------------------------------------------
 Center     Atomic      Atomic             Coordinates (Angstroms)
 Number     Number       Type             X           Y           Z
 ---------------------------------------------------------------------
      1          6           0        2.858499   -1.142103    0.374244
      2          6           0        3.579312    0.001087   -0.003359
      3          6           0        1.469111   -1.138314    0.362939
      4          6           0        2.858875    1.143435   -0.384264
      5          6           0        0.739097   -0.000512   -0.009817
      6          6           0        1.469477    1.138129   -0.379362
      7          1           0        0.937192   -2.033473    0.688815
      8          1           0        3.397761    2.037798   -0.696269
      9          1           0        0.938071    2.032504   -0.708142
     10          6           0       -0.742883   -0.001384   -0.012974
     11          6           0       -1.474511    1.130858    0.372988
     12          6           0       -1.471490   -1.134716   -0.402503
     13          6           0       -2.864100    1.134318    0.378218
     14          6           0       -2.860735   -1.140009   -0.413286
     15          6           0       -3.582937   -0.003346   -0.018716
     16          1           0       -0.944110    2.021230    0.714069
     17          1           0       -0.938347   -2.023708   -0.742945
     18          1           0       -3.404263    2.023625    0.702274
     19          1           0       -3.398798   -2.029064   -0.741639
     20          1           0        3.397024   -2.035914    0.688457
     21          7           0       -4.995311   -0.005703   -0.022721
     22          6           0       -5.713915   -1.185510    0.315496
     23          6           0       -6.824749   -1.586223   -0.439679
     24          6           0       -5.336499   -1.964565    1.414395
     25          6           0       -7.543368   -2.726588   -0.103607
     26          6           0       -6.037549   -3.122582    1.739703
     27          6           0       -7.148838   -3.505710    0.986012
     28          1           0       -7.129554   -0.987536   -1.298124
     29          1           0       -4.477812   -1.664402    2.014832
     30          1           0       -8.408278   -3.036049   -0.689802
     31          1           0       -5.724570   -3.720924    2.598980
     32          6           0       -5.717056    1.178925   -0.336296
     33          6           0       -6.821807    1.565845    0.429047
     34          6           0       -5.346761    1.975943   -1.428789
     35          6           0       -7.543924    2.712298    0.107280
     36          6           0       -6.047800    3.134194   -1.738027
     37          6           0       -7.155651    3.506391   -0.973222
     38          1           0       -7.124426    0.956025    1.280239
     39          1           0       -4.491517    1.682511   -2.037555
     40          1           0       -8.407549    2.995534    0.714075
     41          1           0       -5.757368    3.754511   -2.585554
     42          7           0        4.991423    0.001999   -0.000060
     43          6           0        5.710552    1.183762    0.330631
     44          6           0        6.812654    1.584277   -0.431608
     45          6           0        5.340603    1.964026    1.435102
     46          6           0        7.532572    2.727778   -0.095183
     47          6           0        6.039551    3.119564    1.759528
     48          6           0        7.144632    3.505373    0.997606
     49          1           0        7.113605    0.987752   -1.292811
     50          1           0        4.486562    1.660323    2.040543
     51          1           0        8.393358    3.022713   -0.700462
     52          1           0        5.749024    3.727528    2.615933
     53          6           0        5.713955   -1.178690   -0.326778
     54          6           0        6.814458   -1.575861    0.439552
     55          6           0        5.349314   -1.961286   -1.431414
     56          6           0        7.537888   -2.718318    0.107058
     57          6           0        6.051756   -3.115796   -1.751909
     58          6           0        7.155153   -3.498257   -0.985865
     59          1           0        7.111509   -0.977436    1.300789
     60          1           0        4.496830   -1.660119   -2.040298
     61          1           0        8.397429   -3.010471    0.715458
     62          1           0        5.765438   -3.725350   -2.608604
     63          8           0        7.820509   -4.641023   -1.355507
     64          1           0        8.555246   -4.788670   -0.739309
     65          8           0        7.806379    4.648952    1.371018
     66          1           0        8.541702    4.800061    0.756350
     67          8           0       -7.887404   -4.628973    1.265636
     68          1           0       -7.503413   -5.071476    2.038990
     69          8           0       -7.819547    4.653451   -1.332021
     70          1           0       -8.560354    4.790553   -0.720672
 ---------------------------------------------------------------------

 SCF Done:  E(RLC-wHPBE) =  -1797.98194462     A.U. after   14 cycles

 The electronic state is 1-A.
 Alpha  occ. eigenvalues --  -18.88272 -18.88268 -18.88215 -18.88145 -14.11525
 Alpha  occ. eigenvalues --  -14.11470 -10.04742 -10.04740 -10.04682 -10.04613
 Alpha  occ. eigenvalues --  -10.02431 -10.02405 -10.02338 -10.02334 -10.02282
 Alpha  occ. eigenvalues --  -10.02241  -9.99325  -9.99320  -9.99268  -9.99199
 Alpha  occ. eigenvalues --   -9.99161  -9.99159  -9.99097  -9.99043  -9.98994
 Alpha  occ. eigenvalues --   -9.98992  -9.98938  -9.98878  -9.98834  -9.98820
 Alpha  occ. eigenvalues --   -9.98690  -9.98689  -9.98632  -9.98573  -9.98289
 Alpha  occ. eigenvalues --   -9.98281  -9.98276  -9.98274  -9.98047  -9.98042
 Alpha  occ. eigenvalues --   -9.98039  -9.98033  -1.07656  -1.07652  -1.07597
 Alpha  occ. eigenvalues --   -1.07528  -0.98670  -0.98612  -0.89099  -0.88642
 Alpha  occ. eigenvalues --   -0.88561  -0.88052  -0.87043  -0.85939  -0.80661
 Alpha  occ. eigenvalues --   -0.78988  -0.78936  -0.78832  -0.78459  -0.78379
 Alpha  occ. eigenvalues --   -0.78201  -0.77471  -0.77060  -0.76864  -0.74761
 Alpha  occ. eigenvalues --   -0.72756  -0.68489  -0.67785  -0.67203  -0.67012
 Alpha  occ. eigenvalues --   -0.66575  -0.65886  -0.65468  -0.64841  -0.63756
 Alpha  occ. eigenvalues --   -0.62990  -0.62295  -0.61149  -0.59575  -0.59483
 Alpha  occ. eigenvalues --   -0.59440  -0.59405  -0.58371  -0.57774  -0.57252
 Alpha  occ. eigenvalues --   -0.56838  -0.54565  -0.53198  -0.52987  -0.51799
 Alpha  occ. eigenvalues --   -0.51470  -0.51147  -0.49456  -0.49268  -0.49200
 Alpha  occ. eigenvalues --   -0.49151  -0.48663  -0.48553  -0.48321  -0.47483
 Alpha  occ. eigenvalues --   -0.47464  -0.47381  -0.47231  -0.46912  -0.46741
 Alpha  occ. eigenvalues --   -0.46633  -0.46419  -0.46306  -0.46184  -0.46085
 Alpha  occ. eigenvalues --   -0.45780  -0.44880  -0.44711  -0.44413  -0.43378
 Alpha  occ. eigenvalues --   -0.43269  -0.42899  -0.42538  -0.42262  -0.42198
 Alpha  occ. eigenvalues --   -0.40624  -0.40351  -0.40072  -0.39990  -0.39591
 Alpha  occ. eigenvalues --   -0.39377  -0.39263  -0.39032  -0.38968  -0.38818
 Alpha  occ. eigenvalues --   -0.38138  -0.35934  -0.34288  -0.32525  -0.32463
 Alpha  occ. eigenvalues --   -0.32012  -0.31770  -0.31141  -0.31039  -0.31003
 Alpha  occ. eigenvalues --   -0.29270  -0.29148  -0.28937  -0.23818  -0.22303
 Alpha virt. eigenvalues --    0.01297   0.01947   0.02035   0.03635   0.03725
 Alpha virt. eigenvalues --    0.03975   0.04076   0.04494   0.04859   0.04920
 Alpha virt. eigenvalues --    0.07416   0.07978   0.08035   0.08060   0.08135

 Mulliken charges:
               1
     1  C   -0.148192
     2  C    0.017686
     3  C   -0.150310
     4  C   -0.148134
     5  C    0.029870
     6  C   -0.150285
     7  H    0.118792
     8  H    0.144332
     9  H    0.120447
    10  C    0.030190
    11  C   -0.150461
    12  C   -0.149962
    13  C   -0.145515
    14  C   -0.149258
    15  C    0.012889
    16  H    0.120142
    17  H    0.120272
    18  H    0.144372
    19  H    0.143423
    20  H    0.144048
    21  N   -0.000779
    22  C   -0.112926
    23  C   -0.059411
    24  C   -0.084545
    25  C   -0.202408
    26  C   -0.175121
    27  C    0.118860
    28  H    0.134154
    29  H    0.142593
    30  H    0.116715
    31  H    0.106275
    32  C   -0.106956
    33  C   -0.081431
    34  C   -0.067338
    35  C   -0.172395
    36  C   -0.199160
    37  C    0.115752
    38  H    0.135915
    39  H    0.141240
    40  H    0.106816
    41  H    0.116924
    42  N    0.000087
    43  C   -0.115938
    44  C   -0.080655
    45  C   -0.061664
    46  C   -0.173317
    47  C   -0.200239
    48  C    0.116448
    49  H    0.135293
    50  H    0.140915
    51  H    0.107057
    52  H    0.116905
    53  C   -0.114294
    54  C   -0.081358
    55  C   -0.062875
    56  C   -0.173294
    57  C   -0.200158
    58  C    0.116247
    59  H    0.135303
    60  H    0.141452
    61  H    0.106917
    62  H    0.117098
    63  O   -0.242606
    64  H    0.268406
    65  O   -0.242587
    66  H    0.268483
    67  O   -0.242927
    68  H    0.268474
    69  O   -0.242737
    70  H    0.268441
 Sum of Mulliken charges =  -0.00000

 Dipole moment (field-independent basis, Debye):
    X=              1.6783    Y=             -0.4214    Z=              2.0465  Tot=              2.6800
 Quadrupole moment (field-independent basis, Debye-Ang):
   XX=           -190.4647   YY=           -232.6985   ZZ=           -241.8082
   XY=             -5.2384   XZ=            -14.6772   YZ=            -12.0312

 Normal termination of Gaussian 16 at Mon Jan 18 14:31:04 2021.
