 Gaussian 16, Revision A.03,
 Gaussian 16:  EM64L-G16RevA.03 25-Dec-2016

 ----------------------------------------------------------------------
 #P LC-wHPBE/TZVP iop(3/107=0175300000, 3/108=0175300000) scf=(conver=6
 ,fermi,ndamp=35,noincfock,novaracc,vshift=500,xqc)
 ----------------------------------------------------------------------

 -------------
 H28 C36 N2 O4
 -------------
 Symbolic Z-matrix:
 Charge =  1 Multiplicity = 2

                         Standard orientation:
 ---------------------------------------------------------------------
 Center     Atomic      Atomic             Coordinates (Angstroms)
 Number     Number       Type             X           Y           Z
 ---------------------------------------------------------------------
      1          6           0        2.858499   -1.142103    0.374244
      2          6           0        3.579312    0.001087   -0.003359
      3          6           0        1.469111   -1.138314    0.362939
      4          6           0        2.858875    1.143435   -0.384264
      5          6           0        0.739097   -0.000512   -0.009817
      6          6           0        1.469477    1.138129   -0.379362
      7          1           0        0.937192   -2.033473    0.688815
      8          1           0        3.397761    2.037798   -0.696269
      9          1           0        0.938071    2.032504   -0.708142
     10          6           0       -0.742883   -0.001384   -0.012974
     11          6           0       -1.474511    1.130858    0.372988
     12          6           0       -1.471490   -1.134716   -0.402503
     13          6           0       -2.864100    1.134318    0.378218
     14          6           0       -2.860735   -1.140009   -0.413286
     15          6           0       -3.582937   -0.003346   -0.018716
     16          1           0       -0.944110    2.021230    0.714069
     17          1           0       -0.938347   -2.023708   -0.742945
     18          1           0       -3.404263    2.023625    0.702274
     19          1           0       -3.398798   -2.029064   -0.741639
     20          1           0        3.397024   -2.035914    0.688457
     21          7           0       -4.995311   -0.005703   -0.022721
     22          6           0       -5.713915   -1.185510    0.315496
     23          6           0       -6.824749   -1.586223   -0.439679
     24          6           0       -5.336499   -1.964565    1.414395
     25          6           0       -7.543368   -2.726588   -0.103607
     26          6           0       -6.037549   -3.122582    1.739703
     27          6           0       -7.148838   -3.505710    0.986012
     28          1           0       -7.129554   -0.987536   -1.298124
     29          1           0       -4.477812   -1.664402    2.014832
     30          1           0       -8.408278   -3.036049   -0.689802
     31          1           0       -5.724570   -3.720924    2.598980
     32          6           0       -5.717056    1.178925   -0.336296
     33          6           0       -6.821807    1.565845    0.429047
     34          6           0       -5.346761    1.975943   -1.428789
     35          6           0       -7.543924    2.712298    0.107280
     36          6           0       -6.047800    3.134194   -1.738027
     37          6           0       -7.155651    3.506391   -0.973222
     38          1           0       -7.124426    0.956025    1.280239
     39          1           0       -4.491517    1.682511   -2.037555
     40          1           0       -8.407549    2.995534    0.714075
     41          1           0       -5.757368    3.754511   -2.585554
     42          7           0        4.991423    0.001999   -0.000060
     43          6           0        5.710552    1.183762    0.330631
     44          6           0        6.812654    1.584277   -0.431608
     45          6           0        5.340603    1.964026    1.435102
     46          6           0        7.532572    2.727778   -0.095183
     47          6           0        6.039551    3.119564    1.759528
     48          6           0        7.144632    3.505373    0.997606
     49          1           0        7.113605    0.987752   -1.292811
     50          1           0        4.486562    1.660323    2.040543
     51          1           0        8.393358    3.022713   -0.700462
     52          1           0        5.749024    3.727528    2.615933
     53          6           0        5.713955   -1.178690   -0.326778
     54          6           0        6.814458   -1.575861    0.439552
     55          6           0        5.349314   -1.961286   -1.431414
     56          6           0        7.537888   -2.718318    0.107058
     57          6           0        6.051756   -3.115796   -1.751909
     58          6           0        7.155153   -3.498257   -0.985865
     59          1           0        7.111509   -0.977436    1.300789
     60          1           0        4.496830   -1.660119   -2.040298
     61          1           0        8.397429   -3.010471    0.715458
     62          1           0        5.765438   -3.725350   -2.608604
     63          8           0        7.820509   -4.641023   -1.355507
     64          1           0        8.555246   -4.788670   -0.739309
     65          8           0        7.806379    4.648952    1.371018
     66          1           0        8.541702    4.800061    0.756350
     67          8           0       -7.887404   -4.628973    1.265636
     68          1           0       -7.503413   -5.071476    2.038990
     69          8           0       -7.819547    4.653451   -1.332021
     70          1           0       -8.560354    4.790553   -0.720672
 ---------------------------------------------------------------------

 SCF Done:  E(ULC-wHPBE) =  -1797.75786600     A.U. after   24 cycles

 The electronic state is 2-A.
 Alpha  occ. eigenvalues --  -18.96794 -18.96733 -18.96608 -18.96601 -14.24715
 Alpha  occ. eigenvalues --  -14.24359 -10.14110 -10.14052 -10.13939 -10.13903
 Alpha  occ. eigenvalues --  -10.13899 -10.13786 -10.12238 -10.12200 -10.12014
 Alpha  occ. eigenvalues --  -10.12008 -10.10415 -10.10286 -10.09261 -10.09256
 Alpha  occ. eigenvalues --  -10.09221 -10.09219 -10.09154 -10.09140 -10.09066
 Alpha  occ. eigenvalues --  -10.09056 -10.08957 -10.08799 -10.08687 -10.08635
 Alpha  occ. eigenvalues --  -10.08629 -10.08623 -10.08532 -10.08531 -10.08347
 Alpha  occ. eigenvalues --  -10.08249 -10.08122 -10.08115 -10.07668 -10.07657
 Alpha  occ. eigenvalues --  -10.07531 -10.07528  -1.16112  -1.16049  -1.15932
 Alpha  occ. eigenvalues --   -1.15927  -1.10336  -1.10069  -1.00134  -0.98504
 Alpha  occ. eigenvalues --   -0.98154  -0.97966  -0.96761  -0.96117  -0.91580
 Alpha  occ. eigenvalues --   -0.89090  -0.88752  -0.88482  -0.87914  -0.87741
 Alpha  occ. eigenvalues --   -0.87602  -0.87432  -0.87262  -0.87109  -0.84642
 Alpha  occ. eigenvalues --   -0.82968  -0.78540  -0.77673  -0.76910  -0.76604
 Alpha  occ. eigenvalues --   -0.75801  -0.75626  -0.75260  -0.74703  -0.73666
 Alpha  occ. eigenvalues --   -0.73468  -0.71734  -0.71129  -0.69116  -0.68714
 Alpha  occ. eigenvalues --   -0.68541  -0.68460  -0.68054  -0.67886  -0.67101
 Alpha  occ. eigenvalues --   -0.66519  -0.65200  -0.62973  -0.62561  -0.61697
 Alpha  occ. eigenvalues --   -0.61114  -0.60848  -0.59714  -0.59166  -0.58972
 Alpha  occ. eigenvalues --   -0.58371  -0.58344  -0.58298  -0.58029  -0.57291
 Alpha  occ. eigenvalues --   -0.56784  -0.56718  -0.56490  -0.56400  -0.56340
 Alpha  occ. eigenvalues --   -0.56209  -0.55755  -0.55377  -0.55247  -0.55232
 Alpha  occ. eigenvalues --   -0.55106  -0.54630  -0.54378  -0.54178  -0.53821
 Alpha  occ. eigenvalues --   -0.53417  -0.52490  -0.52001  -0.51495  -0.51231
 Alpha  occ. eigenvalues --   -0.50351  -0.50128  -0.50114  -0.49871  -0.49281
 Alpha  occ. eigenvalues --   -0.49112  -0.48877  -0.48205  -0.47991  -0.47958
 Alpha  occ. eigenvalues --   -0.47914  -0.46622  -0.44844  -0.42342  -0.42194
 Alpha  occ. eigenvalues --   -0.41849  -0.41320  -0.41137  -0.41002  -0.40743
 Alpha  occ. eigenvalues --   -0.39175  -0.38379  -0.38244  -0.34340  -0.33216
 Alpha virt. eigenvalues --   -0.09491  -0.07809  -0.07578  -0.05818  -0.05706
 Alpha virt. eigenvalues --   -0.05656  -0.05377  -0.05352  -0.05186  -0.05058
 Alpha virt. eigenvalues --   -0.02406  -0.01145   0.00704   0.00888   0.00908

  Beta  occ. eigenvalues --  -18.96751 -18.96689 -18.96568 -18.96562 -14.24307
  Beta  occ. eigenvalues --  -14.23977 -10.14047 -10.13989 -10.13912 -10.13845
  Beta  occ. eigenvalues --  -10.13841 -10.13757 -10.12259 -10.12222 -10.12035
  Beta  occ. eigenvalues --  -10.12029 -10.10328 -10.10205 -10.09243 -10.09239
  Beta  occ. eigenvalues --  -10.09183 -10.09175 -10.09146 -10.09132 -10.09017
  Beta  occ. eigenvalues --  -10.09008 -10.08896 -10.08740 -10.08630 -10.08580
  Beta  occ. eigenvalues --  -10.08575 -10.08569 -10.08480 -10.08479 -10.08365
  Beta  occ. eigenvalues --  -10.08263 -10.08135 -10.08128 -10.07683 -10.07677
  Beta  occ. eigenvalues --  -10.07549 -10.07546  -1.16032  -1.15968  -1.15859
  Beta  occ. eigenvalues --   -1.15853  -1.09837  -1.09602  -0.99970  -0.98364
  Beta  occ. eigenvalues --   -0.98067  -0.97886  -0.96635  -0.95969  -0.91379
  Beta  occ. eigenvalues --   -0.89013  -0.88671  -0.88378  -0.87844  -0.87682
  Beta  occ. eigenvalues --   -0.87543  -0.87366  -0.87189  -0.87008  -0.84460
  Beta  occ. eigenvalues --   -0.82689  -0.78459  -0.77558  -0.76808  -0.76499
  Beta  occ. eigenvalues --   -0.75714  -0.75518  -0.75177  -0.74612  -0.73563
  Beta  occ. eigenvalues --   -0.73355  -0.71652  -0.71050  -0.69041  -0.68639
  Beta  occ. eigenvalues --   -0.68486  -0.68408  -0.68005  -0.67811  -0.67006
  Beta  occ. eigenvalues --   -0.66408  -0.65103  -0.62743  -0.62364  -0.61633
  Beta  occ. eigenvalues --   -0.61059  -0.60794  -0.59563  -0.59070  -0.58896
  Beta  occ. eigenvalues --   -0.58303  -0.58294  -0.58231  -0.57983  -0.57244
  Beta  occ. eigenvalues --   -0.56725  -0.56659  -0.56441  -0.56361  -0.56294
  Beta  occ. eigenvalues --   -0.56161  -0.55675  -0.55211  -0.55058  -0.55036
  Beta  occ. eigenvalues --   -0.54939  -0.54507  -0.54220  -0.53967  -0.53632
  Beta  occ. eigenvalues --   -0.53172  -0.52242  -0.51839  -0.51435  -0.51173
  Beta  occ. eigenvalues --   -0.50105  -0.50021  -0.49991  -0.49604  -0.49023
  Beta  occ. eigenvalues --   -0.48873  -0.48695  -0.48142  -0.47949  -0.47896
  Beta  occ. eigenvalues --   -0.47877  -0.46259  -0.43931  -0.42203  -0.42061
  Beta  occ. eigenvalues --   -0.41211  -0.41066  -0.41023  -0.40846  -0.40327
  Beta  occ. eigenvalues --   -0.37856  -0.37800  -0.37731  -0.30527
  Beta virt. eigenvalues --   -0.22216  -0.09150  -0.07570  -0.07338  -0.05547
  Beta virt. eigenvalues --   -0.05424  -0.05377  -0.05067  -0.04974  -0.04910
  Beta virt. eigenvalues --   -0.04751  -0.01870  -0.00537   0.00722   0.00904

 Mulliken charges and spin densities:
               1          2
     1  C   -0.135871   0.030381
     2  C    0.015449   0.034545
     3  C   -0.135369  -0.002332
     4  C   -0.135770   0.030310
     5  C    0.032500   0.055780
     6  C   -0.135325  -0.002441
     7  H    0.143275  -0.000235
     8  H    0.169866  -0.001339
     9  H    0.144826  -0.000241
    10  C    0.031198   0.060659
    11  C   -0.135494  -0.004628
    12  C   -0.135219  -0.005807
    13  C   -0.132377   0.033374
    14  C   -0.136287   0.034011
    15  C    0.009989   0.033296
    16  H    0.145506  -0.000122
    17  H    0.145670  -0.000071
    18  H    0.170143  -0.001484
    19  H    0.169515  -0.001489
    20  H    0.169611  -0.001342
    21  N    0.041801   0.180045
    22  C   -0.123599  -0.005578
    23  C   -0.048313   0.036682
    24  C   -0.077836   0.039779
    25  C   -0.194485  -0.016763
    26  C   -0.163910  -0.019428
    27  C    0.124492   0.045444
    28  H    0.153500  -0.001571
    29  H    0.154192  -0.002012
    30  H    0.145299   0.000831
    31  H    0.130567   0.000984
    32  C   -0.117254  -0.005206
    33  C   -0.069731   0.040935
    34  C   -0.060841   0.036197
    35  C   -0.160323  -0.016413
    36  C   -0.191929  -0.019836
    37  C    0.121645   0.045940
    38  H    0.154735  -0.001834
    39  H    0.153629  -0.001794
    40  H    0.134024   0.000744
    41  H    0.142792   0.001053
    42  N    0.039900   0.169259
    43  C   -0.126105  -0.005595
    44  C   -0.069724   0.037994
    45  C   -0.055941   0.033488
    46  C   -0.162040  -0.015414
    47  C   -0.193469  -0.018285
    48  C    0.121839   0.042125
    49  H    0.153473  -0.001692
    50  H    0.151842  -0.001674
    51  H    0.133225   0.000700
    52  H    0.141505   0.000990
    53  C   -0.124445  -0.005648
    54  C   -0.070393   0.038115
    55  C   -0.057120   0.033587
    56  C   -0.162007  -0.015460
    57  C   -0.193385  -0.018359
    58  C    0.121655   0.042248
    59  H    0.153488  -0.001697
    60  H    0.152402  -0.001678
    61  H    0.133105   0.000702
    62  H    0.141716   0.000991
    63  O   -0.217272   0.013822
    64  H    0.280448  -0.000340
    65  O   -0.217277   0.013795
    66  H    0.280518  -0.000339
    67  O   -0.215178   0.014903
    68  H    0.279963  -0.000368
    69  O   -0.216011   0.015179
    70  H    0.280999  -0.000376
 Sum of Mulliken charges =   1.00000   1.00000

 Dipole moment (field-independent basis, Debye):
    X=              1.0756    Y=             -0.4182    Z=              2.0822  Tot=              2.3806
 Quadrupole moment (field-independent basis, Debye-Ang):
   XX=            -17.3902   YY=           -191.8436   ZZ=           -231.1858
   XY=             -5.4428   XZ=            -14.9435   YZ=            -12.4636

 Normal termination of Gaussian 16 at Mon Jan 18 16:21:16 2021.
