 Gaussian 16, Revision A.03,
 Gaussian 16:  EM64L-G16RevA.03 25-Dec-2016

 ----------------------------------------------------------------------
 #P LC-wHPBE/TZVP iop(3/107=0175300000, 3/108=0175300000) scf=(conver=6
 ,fermi,ndamp=35,noincfock,novaracc,vshift=500,xqc)
 ----------------------------------------------------------------------

 -------------
 H28 C36 N2 O4
 -------------
 Symbolic Z-matrix:
 Charge =  0 Multiplicity = 1

                         Standard orientation:
 ---------------------------------------------------------------------
 Center     Atomic      Atomic             Coordinates (Angstroms)
 Number     Number       Type             X           Y           Z
 ---------------------------------------------------------------------
      1          6           0        2.858499   -1.142103    0.374244
      2          6           0        3.579312    0.001087   -0.003359
      3          6           0        1.469111   -1.138314    0.362939
      4          6           0        2.858875    1.143435   -0.384264
      5          6           0        0.739097   -0.000512   -0.009817
      6          6           0        1.469477    1.138129   -0.379362
      7          1           0        0.937192   -2.033473    0.688815
      8          1           0        3.397761    2.037798   -0.696269
      9          1           0        0.938071    2.032504   -0.708142
     10          6           0       -0.742883   -0.001384   -0.012974
     11          6           0       -1.474511    1.130858    0.372988
     12          6           0       -1.471490   -1.134716   -0.402503
     13          6           0       -2.864100    1.134318    0.378218
     14          6           0       -2.860735   -1.140009   -0.413286
     15          6           0       -3.582937   -0.003346   -0.018716
     16          1           0       -0.944110    2.021230    0.714069
     17          1           0       -0.938347   -2.023708   -0.742945
     18          1           0       -3.404263    2.023625    0.702274
     19          1           0       -3.398798   -2.029064   -0.741639
     20          1           0        3.397024   -2.035914    0.688457
     21          7           0       -4.995311   -0.005703   -0.022721
     22          6           0       -5.713915   -1.185510    0.315496
     23          6           0       -6.824749   -1.586223   -0.439679
     24          6           0       -5.336499   -1.964565    1.414395
     25          6           0       -7.543368   -2.726588   -0.103607
     26          6           0       -6.037549   -3.122582    1.739703
     27          6           0       -7.148838   -3.505710    0.986012
     28          1           0       -7.129554   -0.987536   -1.298124
     29          1           0       -4.477812   -1.664402    2.014832
     30          1           0       -8.408278   -3.036049   -0.689802
     31          1           0       -5.724570   -3.720924    2.598980
     32          6           0       -5.717056    1.178925   -0.336296
     33          6           0       -6.821807    1.565845    0.429047
     34          6           0       -5.346761    1.975943   -1.428789
     35          6           0       -7.543924    2.712298    0.107280
     36          6           0       -6.047800    3.134194   -1.738027
     37          6           0       -7.155651    3.506391   -0.973222
     38          1           0       -7.124426    0.956025    1.280239
     39          1           0       -4.491517    1.682511   -2.037555
     40          1           0       -8.407549    2.995534    0.714075
     41          1           0       -5.757368    3.754511   -2.585554
     42          7           0        4.991423    0.001999   -0.000060
     43          6           0        5.710552    1.183762    0.330631
     44          6           0        6.812654    1.584277   -0.431608
     45          6           0        5.340603    1.964026    1.435102
     46          6           0        7.532572    2.727778   -0.095183
     47          6           0        6.039551    3.119564    1.759528
     48          6           0        7.144632    3.505373    0.997606
     49          1           0        7.113605    0.987752   -1.292811
     50          1           0        4.486562    1.660323    2.040543
     51          1           0        8.393358    3.022713   -0.700462
     52          1           0        5.749024    3.727528    2.615933
     53          6           0        5.713955   -1.178690   -0.326778
     54          6           0        6.814458   -1.575861    0.439552
     55          6           0        5.349314   -1.961286   -1.431414
     56          6           0        7.537888   -2.718318    0.107058
     57          6           0        6.051756   -3.115796   -1.751909
     58          6           0        7.155153   -3.498257   -0.985865
     59          1           0        7.111509   -0.977436    1.300789
     60          1           0        4.496830   -1.660119   -2.040298
     61          1           0        8.397429   -3.010471    0.715458
     62          1           0        5.765438   -3.725350   -2.608604
     63          8           0        7.820509   -4.641023   -1.355507
     64          1           0        8.555246   -4.788670   -0.739309
     65          8           0        7.806379    4.648952    1.371018
     66          1           0        8.541702    4.800061    0.756350
     67          8           0       -7.887404   -4.628973    1.265636
     68          1           0       -7.503413   -5.071476    2.038990
     69          8           0       -7.819547    4.653451   -1.332021
     70          1           0       -8.560354    4.790553   -0.720672
 ---------------------------------------------------------------------

 SCF Done:  E(RLC-wHPBE) =  -1797.98081300     A.U. after   14 cycles

 The electronic state is 1-A.
 Alpha  occ. eigenvalues --  -18.88245 -18.88241 -18.88188 -18.88118 -14.11499
 Alpha  occ. eigenvalues --  -14.11444 -10.04713 -10.04712 -10.04653 -10.04584
 Alpha  occ. eigenvalues --  -10.02402 -10.02376 -10.02310 -10.02305 -10.02253
 Alpha  occ. eigenvalues --  -10.02212  -9.99296  -9.99292  -9.99240  -9.99170
 Alpha  occ. eigenvalues --   -9.99133  -9.99130  -9.99069  -9.99015  -9.98965
 Alpha  occ. eigenvalues --   -9.98964  -9.98910  -9.98850  -9.98806  -9.98791
 Alpha  occ. eigenvalues --   -9.98662  -9.98661  -9.98604  -9.98545  -9.98260
 Alpha  occ. eigenvalues --   -9.98253  -9.98247  -9.98245  -9.98019  -9.98013
 Alpha  occ. eigenvalues --   -9.98010  -9.98005  -1.07627  -1.07624  -1.07568
 Alpha  occ. eigenvalues --   -1.07500  -0.98641  -0.98583  -0.89068  -0.88612
 Alpha  occ. eigenvalues --   -0.88531  -0.88022  -0.87013  -0.85909  -0.80632
 Alpha  occ. eigenvalues --   -0.78959  -0.78907  -0.78803  -0.78430  -0.78350
 Alpha  occ. eigenvalues --   -0.78172  -0.77442  -0.77032  -0.76835  -0.74733
 Alpha  occ. eigenvalues --   -0.72728  -0.68462  -0.67759  -0.67177  -0.66986
 Alpha  occ. eigenvalues --   -0.66548  -0.65859  -0.65441  -0.64815  -0.63730
 Alpha  occ. eigenvalues --   -0.62963  -0.62269  -0.61124  -0.59550  -0.59458
 Alpha  occ. eigenvalues --   -0.59415  -0.59380  -0.58346  -0.57750  -0.57228
 Alpha  occ. eigenvalues --   -0.56814  -0.54541  -0.53174  -0.52963  -0.51775
 Alpha  occ. eigenvalues --   -0.51446  -0.51123  -0.49432  -0.49244  -0.49176
 Alpha  occ. eigenvalues --   -0.49127  -0.48639  -0.48529  -0.48297  -0.47460
 Alpha  occ. eigenvalues --   -0.47441  -0.47358  -0.47208  -0.46889  -0.46718
 Alpha  occ. eigenvalues --   -0.46609  -0.46395  -0.46281  -0.46160  -0.46061
 Alpha  occ. eigenvalues --   -0.45757  -0.44858  -0.44689  -0.44391  -0.43355
 Alpha  occ. eigenvalues --   -0.43247  -0.42876  -0.42516  -0.42240  -0.42176
 Alpha  occ. eigenvalues --   -0.40601  -0.40328  -0.40050  -0.39967  -0.39570
 Alpha  occ. eigenvalues --   -0.39356  -0.39242  -0.39011  -0.38947  -0.38797
 Alpha  occ. eigenvalues --   -0.38117  -0.35913  -0.34267  -0.32507  -0.32445
 Alpha  occ. eigenvalues --   -0.31994  -0.31752  -0.31123  -0.31021  -0.30985
 Alpha  occ. eigenvalues --   -0.29253  -0.29131  -0.28921  -0.23804  -0.22289
 Alpha virt. eigenvalues --    0.01285   0.01934   0.02022   0.03622   0.03712
 Alpha virt. eigenvalues --    0.03961   0.04062   0.04480   0.04845   0.04906
 Alpha virt. eigenvalues --    0.07402   0.07964   0.08021   0.08046   0.08120

 Mulliken charges:
               1
     1  C   -0.148180
     2  C    0.017714
     3  C   -0.150256
     4  C   -0.148122
     5  C    0.029888
     6  C   -0.150230
     7  H    0.118739
     8  H    0.144272
     9  H    0.120394
    10  C    0.030209
    11  C   -0.150406
    12  C   -0.149907
    13  C   -0.145503
    14  C   -0.149249
    15  C    0.012919
    16  H    0.120088
    17  H    0.120219
    18  H    0.144311
    19  H    0.143362
    20  H    0.143987
    21  N   -0.000635
    22  C   -0.112909
    23  C   -0.059408
    24  C   -0.084542
    25  C   -0.202351
    26  C   -0.175061
    27  C    0.118876
    28  H    0.134096
    29  H    0.142535
    30  H    0.116670
    31  H    0.106231
    32  C   -0.106940
    33  C   -0.081413
    34  C   -0.067348
    35  C   -0.172336
    36  C   -0.199103
    37  C    0.115768
    38  H    0.135858
    39  H    0.141181
    40  H    0.106772
    41  H    0.116879
    42  N    0.000231
    43  C   -0.115920
    44  C   -0.080640
    45  C   -0.061675
    46  C   -0.173257
    47  C   -0.200181
    48  C    0.116464
    49  H    0.135237
    50  H    0.140856
    51  H    0.107013
    52  H    0.116861
    53  C   -0.114277
    54  C   -0.081343
    55  C   -0.062886
    56  C   -0.173234
    57  C   -0.200101
    58  C    0.116262
    59  H    0.135247
    60  H    0.141393
    61  H    0.106872
    62  H    0.117053
    63  O   -0.242603
    64  H    0.268404
    65  O   -0.242583
    66  H    0.268481
    67  O   -0.242924
    68  H    0.268473
    69  O   -0.242733
    70  H    0.268440
 Sum of Mulliken charges =  -0.00000

 Dipole moment (field-independent basis, Debye):
    X=              1.6781    Y=             -0.4214    Z=              2.0463  Tot=              2.6797
 Quadrupole moment (field-independent basis, Debye-Ang):
   XX=           -190.4575   YY=           -232.6944   ZZ=           -241.8119
   XY=             -5.2381   XZ=            -14.6760   YZ=            -12.0303

 Normal termination of Gaussian 16 at Mon Jan 18 15:34:53 2021.
