 Gaussian 16, Revision A.03,
 Gaussian 16:  EM64L-G16RevA.03 25-Dec-2016

 ----------------------------------------------------------------------
 #P LC-wHPBE/TZVP iop(3/107=0173600000, 3/108=0173600000) scf=(conver=6
 ,fermi,ndamp=35,noincfock,novaracc,vshift=500,xqc)
 ----------------------------------------------------------------------

 -------------
 H28 C36 N2 O4
 -------------
 Symbolic Z-matrix:
 Charge =  0 Multiplicity = 1

                         Standard orientation:
 ---------------------------------------------------------------------
 Center     Atomic      Atomic             Coordinates (Angstroms)
 Number     Number       Type             X           Y           Z
 ---------------------------------------------------------------------
      1          6           0        2.858499   -1.142103    0.374244
      2          6           0        3.579312    0.001087   -0.003359
      3          6           0        1.469111   -1.138314    0.362939
      4          6           0        2.858875    1.143435   -0.384264
      5          6           0        0.739097   -0.000512   -0.009817
      6          6           0        1.469477    1.138129   -0.379362
      7          1           0        0.937192   -2.033473    0.688815
      8          1           0        3.397761    2.037798   -0.696269
      9          1           0        0.938071    2.032504   -0.708142
     10          6           0       -0.742883   -0.001384   -0.012974
     11          6           0       -1.474511    1.130858    0.372988
     12          6           0       -1.471490   -1.134716   -0.402503
     13          6           0       -2.864100    1.134318    0.378218
     14          6           0       -2.860735   -1.140009   -0.413286
     15          6           0       -3.582937   -0.003346   -0.018716
     16          1           0       -0.944110    2.021230    0.714069
     17          1           0       -0.938347   -2.023708   -0.742945
     18          1           0       -3.404263    2.023625    0.702274
     19          1           0       -3.398798   -2.029064   -0.741639
     20          1           0        3.397024   -2.035914    0.688457
     21          7           0       -4.995311   -0.005703   -0.022721
     22          6           0       -5.713915   -1.185510    0.315496
     23          6           0       -6.824749   -1.586223   -0.439679
     24          6           0       -5.336499   -1.964565    1.414395
     25          6           0       -7.543368   -2.726588   -0.103607
     26          6           0       -6.037549   -3.122582    1.739703
     27          6           0       -7.148838   -3.505710    0.986012
     28          1           0       -7.129554   -0.987536   -1.298124
     29          1           0       -4.477812   -1.664402    2.014832
     30          1           0       -8.408278   -3.036049   -0.689802
     31          1           0       -5.724570   -3.720924    2.598980
     32          6           0       -5.717056    1.178925   -0.336296
     33          6           0       -6.821807    1.565845    0.429047
     34          6           0       -5.346761    1.975943   -1.428789
     35          6           0       -7.543924    2.712298    0.107280
     36          6           0       -6.047800    3.134194   -1.738027
     37          6           0       -7.155651    3.506391   -0.973222
     38          1           0       -7.124426    0.956025    1.280239
     39          1           0       -4.491517    1.682511   -2.037555
     40          1           0       -8.407549    2.995534    0.714075
     41          1           0       -5.757368    3.754511   -2.585554
     42          7           0        4.991423    0.001999   -0.000060
     43          6           0        5.710552    1.183762    0.330631
     44          6           0        6.812654    1.584277   -0.431608
     45          6           0        5.340603    1.964026    1.435102
     46          6           0        7.532572    2.727778   -0.095183
     47          6           0        6.039551    3.119564    1.759528
     48          6           0        7.144632    3.505373    0.997606
     49          1           0        7.113605    0.987752   -1.292811
     50          1           0        4.486562    1.660323    2.040543
     51          1           0        8.393358    3.022713   -0.700462
     52          1           0        5.749024    3.727528    2.615933
     53          6           0        5.713955   -1.178690   -0.326778
     54          6           0        6.814458   -1.575861    0.439552
     55          6           0        5.349314   -1.961286   -1.431414
     56          6           0        7.537888   -2.718318    0.107058
     57          6           0        6.051756   -3.115796   -1.751909
     58          6           0        7.155153   -3.498257   -0.985865
     59          1           0        7.111509   -0.977436    1.300789
     60          1           0        4.496830   -1.660119   -2.040298
     61          1           0        8.397429   -3.010471    0.715458
     62          1           0        5.765438   -3.725350   -2.608604
     63          8           0        7.820509   -4.641023   -1.355507
     64          1           0        8.555246   -4.788670   -0.739309
     65          8           0        7.806379    4.648952    1.371018
     66          1           0        8.541702    4.800061    0.756350
     67          8           0       -7.887404   -4.628973    1.265636
     68          1           0       -7.503413   -5.071476    2.038990
     69          8           0       -7.819547    4.653451   -1.332021
     70          1           0       -8.560354    4.790553   -0.720672
 ---------------------------------------------------------------------

 SCF Done:  E(RLC-wHPBE) =  -1797.97696378     A.U. after   14 cycles

 The electronic state is 1-A.
 Alpha  occ. eigenvalues --  -18.88155 -18.88150 -18.88097 -18.88028 -14.11409
 Alpha  occ. eigenvalues --  -14.11354 -10.04614 -10.04613 -10.04555 -10.04486
 Alpha  occ. eigenvalues --  -10.02303 -10.02277 -10.02212 -10.02208 -10.02155
 Alpha  occ. eigenvalues --  -10.02115  -9.99200  -9.99195  -9.99143  -9.99074
 Alpha  occ. eigenvalues --   -9.99036  -9.99033  -9.98972  -9.98918  -9.98868
 Alpha  occ. eigenvalues --   -9.98867  -9.98813  -9.98753  -9.98708  -9.98693
 Alpha  occ. eigenvalues --   -9.98566  -9.98565  -9.98508  -9.98448  -9.98162
 Alpha  occ. eigenvalues --   -9.98155  -9.98149  -9.98147  -9.97922  -9.97917
 Alpha  occ. eigenvalues --   -9.97914  -9.97908  -1.07531  -1.07528  -1.07472
 Alpha  occ. eigenvalues --   -1.07404  -0.98541  -0.98484  -0.88965  -0.88510
 Alpha  occ. eigenvalues --   -0.88429  -0.87920  -0.86912  -0.85808  -0.80532
 Alpha  occ. eigenvalues --   -0.78861  -0.78809  -0.78704  -0.78331  -0.78252
 Alpha  occ. eigenvalues --   -0.78074  -0.77343  -0.76935  -0.76737  -0.74638
 Alpha  occ. eigenvalues --   -0.72634  -0.68371  -0.67669  -0.67087  -0.66895
 Alpha  occ. eigenvalues --   -0.66456  -0.65769  -0.65350  -0.64724  -0.63642
 Alpha  occ. eigenvalues --   -0.62873  -0.62182  -0.61036  -0.59464  -0.59372
 Alpha  occ. eigenvalues --   -0.59330  -0.59295  -0.58258  -0.57665  -0.57145
 Alpha  occ. eigenvalues --   -0.56733  -0.54457  -0.53091  -0.52880  -0.51693
 Alpha  occ. eigenvalues --   -0.51365  -0.51041  -0.49352  -0.49164  -0.49096
 Alpha  occ. eigenvalues --   -0.49047  -0.48559  -0.48449  -0.48217  -0.47382
 Alpha  occ. eigenvalues --   -0.47362  -0.47279  -0.47130  -0.46810  -0.46640
 Alpha  occ. eigenvalues --   -0.46529  -0.46312  -0.46198  -0.46078  -0.45979
 Alpha  occ. eigenvalues --   -0.45677  -0.44783  -0.44613  -0.44315  -0.43278
 Alpha  occ. eigenvalues --   -0.43172  -0.42797  -0.42441  -0.42162  -0.42101
 Alpha  occ. eigenvalues --   -0.40524  -0.40250  -0.39972  -0.39889  -0.39498
 Alpha  occ. eigenvalues --   -0.39284  -0.39170  -0.38941  -0.38876  -0.38727
 Alpha  occ. eigenvalues --   -0.38046  -0.35843  -0.34196  -0.32446  -0.32384
 Alpha  occ. eigenvalues --   -0.31933  -0.31692  -0.31062  -0.30961  -0.30924
 Alpha  occ. eigenvalues --   -0.29195  -0.29073  -0.28865  -0.23756  -0.22243
 Alpha virt. eigenvalues --    0.01245   0.01889   0.01977   0.03577   0.03667
 Alpha virt. eigenvalues --    0.03912   0.04013   0.04432   0.04800   0.04858
 Alpha virt. eigenvalues --    0.07352   0.07914   0.07971   0.07996   0.08071

 Mulliken charges:
               1
     1  C   -0.148142
     2  C    0.017809
     3  C   -0.150071
     4  C   -0.148084
     5  C    0.029948
     6  C   -0.150046
     7  H    0.118561
     8  H    0.144067
     9  H    0.120216
    10  C    0.030268
    11  C   -0.150220
    12  C   -0.149721
    13  C   -0.145466
    14  C   -0.149216
    15  C    0.013017
    16  H    0.119910
    17  H    0.120041
    18  H    0.144106
    19  H    0.143157
    20  H    0.143782
    21  N   -0.000148
    22  C   -0.112851
    23  C   -0.059401
    24  C   -0.084537
    25  C   -0.202156
    26  C   -0.174856
    27  C    0.118925
    28  H    0.133900
    29  H    0.142342
    30  H    0.116519
    31  H    0.106084
    32  C   -0.106887
    33  C   -0.081357
    34  C   -0.067383
    35  C   -0.172134
    36  C   -0.198909
    37  C    0.115819
    38  H    0.135669
    39  H    0.140982
    40  H    0.106623
    41  H    0.116731
    42  N    0.000718
    43  C   -0.115863
    44  C   -0.080590
    45  C   -0.061712
    46  C   -0.173053
    47  C   -0.199984
    48  C    0.116513
    49  H    0.135048
    50  H    0.140657
    51  H    0.106864
    52  H    0.116712
    53  C   -0.114219
    54  C   -0.081292
    55  C   -0.062923
    56  C   -0.173029
    57  C   -0.199904
    58  C    0.116312
    59  H    0.135057
    60  H    0.141194
    61  H    0.106723
    62  H    0.116905
    63  O   -0.242592
    64  H    0.268400
    65  O   -0.242573
    66  H    0.268477
    67  O   -0.242914
    68  H    0.268469
    69  O   -0.242723
    70  H    0.268435
 Sum of Mulliken charges =  -0.00000

 Dipole moment (field-independent basis, Debye):
    X=              1.6776    Y=             -0.4212    Z=              2.0457  Tot=              2.6790
 Quadrupole moment (field-independent basis, Debye-Ang):
   XX=           -190.4327   YY=           -232.6808   ZZ=           -241.8245
   XY=             -5.2369   XZ=            -14.6720   YZ=            -12.0272

 Normal termination of Gaussian 16 at Mon Jan 18 10:50:57 2021.
