 Gaussian 16, Revision A.03,
 Gaussian 16:  EM64L-G16RevA.03 25-Dec-2016

 ----------------------------------------------------------------------
 #P LC-wHPBE/TZVP iop(3/107=0135500000, 3/108=0135500000) scf=(conver=6
 ,fermi,ndamp=35,noincfock,novaracc,vshift=500,xqc)
 ----------------------------------------------------------------------

 -------------
 H28 C36 N2 O4
 -------------
 Symbolic Z-matrix:
 Charge =  1 Multiplicity = 2

                         Standard orientation:
 ---------------------------------------------------------------------
 Center     Atomic      Atomic             Coordinates (Angstroms)
 Number     Number       Type             X           Y           Z
 ---------------------------------------------------------------------
      1          6           0        2.858499   -1.142103    0.374244
      2          6           0        3.579312    0.001087   -0.003359
      3          6           0        1.469111   -1.138314    0.362939
      4          6           0        2.858875    1.143435   -0.384264
      5          6           0        0.739097   -0.000512   -0.009817
      6          6           0        1.469477    1.138129   -0.379362
      7          1           0        0.937192   -2.033473    0.688815
      8          1           0        3.397761    2.037798   -0.696269
      9          1           0        0.938071    2.032504   -0.708142
     10          6           0       -0.742883   -0.001384   -0.012974
     11          6           0       -1.474511    1.130858    0.372988
     12          6           0       -1.471490   -1.134716   -0.402503
     13          6           0       -2.864100    1.134318    0.378218
     14          6           0       -2.860735   -1.140009   -0.413286
     15          6           0       -3.582937   -0.003346   -0.018716
     16          1           0       -0.944110    2.021230    0.714069
     17          1           0       -0.938347   -2.023708   -0.742945
     18          1           0       -3.404263    2.023625    0.702274
     19          1           0       -3.398798   -2.029064   -0.741639
     20          1           0        3.397024   -2.035914    0.688457
     21          7           0       -4.995311   -0.005703   -0.022721
     22          6           0       -5.713915   -1.185510    0.315496
     23          6           0       -6.824749   -1.586223   -0.439679
     24          6           0       -5.336499   -1.964565    1.414395
     25          6           0       -7.543368   -2.726588   -0.103607
     26          6           0       -6.037549   -3.122582    1.739703
     27          6           0       -7.148838   -3.505710    0.986012
     28          1           0       -7.129554   -0.987536   -1.298124
     29          1           0       -4.477812   -1.664402    2.014832
     30          1           0       -8.408278   -3.036049   -0.689802
     31          1           0       -5.724570   -3.720924    2.598980
     32          6           0       -5.717056    1.178925   -0.336296
     33          6           0       -6.821807    1.565845    0.429047
     34          6           0       -5.346761    1.975943   -1.428789
     35          6           0       -7.543924    2.712298    0.107280
     36          6           0       -6.047800    3.134194   -1.738027
     37          6           0       -7.155651    3.506391   -0.973222
     38          1           0       -7.124426    0.956025    1.280239
     39          1           0       -4.491517    1.682511   -2.037555
     40          1           0       -8.407549    2.995534    0.714075
     41          1           0       -5.757368    3.754511   -2.585554
     42          7           0        4.991423    0.001999   -0.000060
     43          6           0        5.710552    1.183762    0.330631
     44          6           0        6.812654    1.584277   -0.431608
     45          6           0        5.340603    1.964026    1.435102
     46          6           0        7.532572    2.727778   -0.095183
     47          6           0        6.039551    3.119564    1.759528
     48          6           0        7.144632    3.505373    0.997606
     49          1           0        7.113605    0.987752   -1.292811
     50          1           0        4.486562    1.660323    2.040543
     51          1           0        8.393358    3.022713   -0.700462
     52          1           0        5.749024    3.727528    2.615933
     53          6           0        5.713955   -1.178690   -0.326778
     54          6           0        6.814458   -1.575861    0.439552
     55          6           0        5.349314   -1.961286   -1.431414
     56          6           0        7.537888   -2.718318    0.107058
     57          6           0        6.051756   -3.115796   -1.751909
     58          6           0        7.155153   -3.498257   -0.985865
     59          1           0        7.111509   -0.977436    1.300789
     60          1           0        4.496830   -1.660119   -2.040298
     61          1           0        8.397429   -3.010471    0.715458
     62          1           0        5.765438   -3.725350   -2.608604
     63          8           0        7.820509   -4.641023   -1.355507
     64          1           0        8.555246   -4.788670   -0.739309
     65          8           0        7.806379    4.648952    1.371018
     66          1           0        8.541702    4.800061    0.756350
     67          8           0       -7.887404   -4.628973    1.265636
     68          1           0       -7.503413   -5.071476    2.038990
     69          8           0       -7.819547    4.653451   -1.332021
     70          1           0       -8.560354    4.790553   -0.720672
 ---------------------------------------------------------------------

 SCF Done:  E(ULC-wHPBE) =  -1797.67483733     A.U. after   22 cycles

 The electronic state is 2-A.
 Alpha  occ. eigenvalues --  -18.94685 -18.94625 -18.94568 -18.94562 -14.22316
 Alpha  occ. eigenvalues --  -14.22106 -10.11800 -10.11746 -10.11678 -10.11674
 Alpha  occ. eigenvalues --  -10.11414 -10.11323 -10.09927 -10.09893 -10.09794
 Alpha  occ. eigenvalues --  -10.09788 -10.07910 -10.07829 -10.06812 -10.06806
 Alpha  occ. eigenvalues --  -10.06767 -10.06767 -10.06735 -10.06722 -10.06684
 Alpha  occ. eigenvalues --  -10.06674 -10.06628 -10.06485 -10.06407 -10.06402
 Alpha  occ. eigenvalues --  -10.06364 -10.06310 -10.06292 -10.06292 -10.06083
 Alpha  occ. eigenvalues --  -10.05989 -10.05936 -10.05929 -10.05412 -10.05402
 Alpha  occ. eigenvalues --  -10.05348 -10.05346  -1.13878  -1.13818  -1.13769
 Alpha  occ. eigenvalues --   -1.13764  -1.07836  -1.07680  -0.97567  -0.96001
 Alpha  occ. eigenvalues --   -0.95744  -0.95639  -0.94375  -0.93724  -0.89111
 Alpha  occ. eigenvalues --   -0.86665  -0.86398  -0.86123  -0.85546  -0.85424
 Alpha  occ. eigenvalues --   -0.85281  -0.85132  -0.84924  -0.84778  -0.82365
 Alpha  occ. eigenvalues --   -0.80685  -0.76308  -0.75403  -0.74723  -0.74414
 Alpha  occ. eigenvalues --   -0.73652  -0.73435  -0.73067  -0.72511  -0.71475
 Alpha  occ. eigenvalues --   -0.71234  -0.69602  -0.68974  -0.66939  -0.66619
 Alpha  occ. eigenvalues --   -0.66465  -0.66408  -0.66027  -0.65806  -0.65078
 Alpha  occ. eigenvalues --   -0.64566  -0.63067  -0.60868  -0.60568  -0.59631
 Alpha  occ. eigenvalues --   -0.59099  -0.58884  -0.57626  -0.57093  -0.56889
 Alpha  occ. eigenvalues --   -0.56448  -0.56372  -0.56322  -0.56130  -0.55227
 Alpha  occ. eigenvalues --   -0.54811  -0.54755  -0.54590  -0.54482  -0.54447
 Alpha  occ. eigenvalues --   -0.54290  -0.53890  -0.53361  -0.53251  -0.53202
 Alpha  occ. eigenvalues --   -0.53122  -0.52701  -0.52409  -0.52285  -0.51796
 Alpha  occ. eigenvalues --   -0.51457  -0.50614  -0.50119  -0.49675  -0.49443
 Alpha  occ. eigenvalues --   -0.48470  -0.48275  -0.48212  -0.47989  -0.47355
 Alpha  occ. eigenvalues --   -0.47263  -0.46984  -0.46425  -0.46253  -0.46224
 Alpha  occ. eigenvalues --   -0.46222  -0.44758  -0.42999  -0.40666  -0.40566
 Alpha  occ. eigenvalues --   -0.40173  -0.39717  -0.39603  -0.39465  -0.39223
 Alpha  occ. eigenvalues --   -0.37669  -0.36894  -0.36834  -0.33015  -0.31905
 Alpha virt. eigenvalues --   -0.10425  -0.08939  -0.08748  -0.06999  -0.06931
 Alpha virt. eigenvalues --   -0.06901  -0.06594  -0.06556  -0.06452  -0.06372
 Alpha virt. eigenvalues --   -0.03695  -0.02451  -0.00586  -0.00460  -0.00399

  Beta  occ. eigenvalues --  -18.94639 -18.94579 -18.94525 -18.94519 -14.21933
  Beta  occ. eigenvalues --  -14.21739 -10.11739 -10.11685 -10.11621 -10.11617
  Beta  occ. eigenvalues --  -10.11390 -10.11298 -10.09941 -10.09907 -10.09808
  Beta  occ. eigenvalues --  -10.09802 -10.07830 -10.07752 -10.06786 -10.06783
  Beta  occ. eigenvalues --  -10.06738 -10.06731 -10.06725 -10.06712 -10.06638
  Beta  occ. eigenvalues --  -10.06628 -10.06571 -10.06429 -10.06354 -10.06349
  Beta  occ. eigenvalues --  -10.06311 -10.06260 -10.06242 -10.06242 -10.06097
  Beta  occ. eigenvalues --  -10.05999 -10.05946 -10.05939 -10.05424 -10.05417
  Beta  occ. eigenvalues --  -10.05363 -10.05360  -1.13796  -1.13734  -1.13691
  Beta  occ. eigenvalues --   -1.13686  -1.07362  -1.07226  -0.97414  -0.95870
  Beta  occ. eigenvalues --   -0.95655  -0.95555  -0.94252  -0.93580  -0.88928
  Beta  occ. eigenvalues --   -0.86584  -0.86313  -0.86027  -0.85477  -0.85364
  Beta  occ. eigenvalues --   -0.85224  -0.85063  -0.84847  -0.84681  -0.82190
  Beta  occ. eigenvalues --   -0.80435  -0.76226  -0.75297  -0.74625  -0.74313
  Beta  occ. eigenvalues --   -0.73570  -0.73324  -0.72985  -0.72422  -0.71377
  Beta  occ. eigenvalues --   -0.71126  -0.69523  -0.68894  -0.66867  -0.66549
  Beta  occ. eigenvalues --   -0.66414  -0.66354  -0.65980  -0.65727  -0.64984
  Beta  occ. eigenvalues --   -0.64458  -0.62975  -0.60657  -0.60386  -0.59570
  Beta  occ. eigenvalues --   -0.59045  -0.58831  -0.57484  -0.57006  -0.56818
  Beta  occ. eigenvalues --   -0.56383  -0.56322  -0.56258  -0.56083  -0.55182
  Beta  occ. eigenvalues --   -0.54749  -0.54706  -0.54550  -0.54443  -0.54405
  Beta  occ. eigenvalues --   -0.54245  -0.53821  -0.53190  -0.53052  -0.53010
  Beta  occ. eigenvalues --   -0.52946  -0.52588  -0.52288  -0.52106  -0.51590
  Beta  occ. eigenvalues --   -0.51204  -0.50397  -0.49983  -0.49617  -0.49387
  Beta  occ. eigenvalues --   -0.48242  -0.48151  -0.48106  -0.47735  -0.47133
  Beta  occ. eigenvalues --   -0.47052  -0.46837  -0.46369  -0.46200  -0.46184
  Beta  occ. eigenvalues --   -0.46178  -0.44451  -0.42297  -0.40513  -0.40417
  Beta  occ. eigenvalues --   -0.39619  -0.39555  -0.39477  -0.39323  -0.38894
  Beta  occ. eigenvalues --   -0.36694  -0.36438  -0.36391  -0.29857
  Beta virt. eigenvalues --   -0.22162  -0.10048  -0.08735  -0.08547  -0.06758
  Beta virt. eigenvalues --   -0.06706  -0.06614  -0.06346  -0.06258  -0.06247
  Beta virt. eigenvalues --   -0.05995  -0.03249  -0.01960  -0.00567  -0.00442

 Mulliken charges and spin densities:
               1          2
     1  C   -0.135446   0.031677
     2  C    0.016322   0.029682
     3  C   -0.132551  -0.002549
     4  C   -0.135344   0.031617
     5  C    0.032944   0.053800
     6  C   -0.132507  -0.002646
     7  H    0.139830  -0.000153
     8  H    0.165317  -0.001366
     9  H    0.141389  -0.000159
    10  C    0.032197   0.056130
    11  C   -0.132635  -0.003405
    12  C   -0.132349  -0.004526
    13  C   -0.132290   0.033034
    14  C   -0.136344   0.033545
    15  C    0.011094   0.029238
    16  H    0.141725  -0.000106
    17  H    0.141891  -0.000058
    18  H    0.165445  -0.001438
    19  H    0.164827  -0.001440
    20  H    0.165058  -0.001369
    21  N    0.047953   0.169595
    22  C   -0.121865  -0.000639
    23  C   -0.049561   0.033932
    24  C   -0.078518   0.037198
    25  C   -0.189224  -0.013308
    26  C   -0.158238  -0.015510
    27  C    0.124310   0.043538
    28  H    0.149906  -0.001463
    29  H    0.151017  -0.001851
    30  H    0.143020   0.000689
    31  H    0.128185   0.000801
    32  C   -0.115646  -0.000232
    33  C   -0.069959   0.038113
    34  C   -0.062332   0.033614
    35  C   -0.154840  -0.012831
    36  C   -0.186600  -0.015940
    37  C    0.121524   0.044040
    38  H    0.151270  -0.001718
    39  H    0.150337  -0.001639
    40  H    0.131590   0.000593
    41  H    0.140580   0.000876
    42  N    0.047163   0.162954
    43  C   -0.124635  -0.000879
    44  C   -0.069917   0.036130
    45  C   -0.057316   0.031815
    46  C   -0.156372  -0.012432
    47  C   -0.187955  -0.014998
    48  C    0.121802   0.041288
    49  H    0.150278  -0.001620
    50  H    0.148953  -0.001557
    51  H    0.131086   0.000577
    52  H    0.139650   0.000843
    53  C   -0.122974  -0.000926
    54  C   -0.070564   0.036246
    55  C   -0.058492   0.031910
    56  C   -0.156345  -0.012470
    57  C   -0.187879  -0.015065
    58  C    0.121622   0.041407
    59  H    0.150286  -0.001625
    60  H    0.149511  -0.001561
    61  H    0.130965   0.000578
    62  H    0.139860   0.000844
    63  O   -0.216462   0.015203
    64  H    0.280794  -0.000374
    65  O   -0.216464   0.015175
    66  H    0.280864  -0.000373
    67  O   -0.214797   0.016013
    68  H    0.280202  -0.000395
    69  O   -0.215561   0.016331
    70  H    0.281216  -0.000404
 Sum of Mulliken charges =   1.00000   1.00000

 Dipole moment (field-independent basis, Debye):
    X=              1.2573    Y=             -0.4137    Z=              2.0720  Tot=              2.4587
 Quadrupole moment (field-independent basis, Debye-Ang):
   XX=            -14.3014   YY=           -190.7889   ZZ=           -231.3269
   XY=             -5.4335   XZ=            -14.8653   YZ=            -12.3363

 Normal termination of Gaussian 16 at Mon Jan 18 08:44:02 2021.
