 Gaussian 16, Revision A.03,
 Gaussian 16:  EM64L-G16RevA.03 25-Dec-2016

 ----------------------------------------------------------------------
 #P LC-wHPBE/TZVP iop(3/107=0180500000, 3/108=0180500000) scf=(conver=6
 ,fermi,ndamp=35,noincfock,novaracc,vshift=500,xqc)
 ----------------------------------------------------------------------

 -------------
 H28 C36 N2 O4
 -------------
 Symbolic Z-matrix:
 Charge =  0 Multiplicity = 1

                         Standard orientation:
 ---------------------------------------------------------------------
 Center     Atomic      Atomic             Coordinates (Angstroms)
 Number     Number       Type             X           Y           Z
 ---------------------------------------------------------------------
      1          6           0        2.858499   -1.142103    0.374244
      2          6           0        3.579312    0.001087   -0.003359
      3          6           0        1.469111   -1.138314    0.362939
      4          6           0        2.858875    1.143435   -0.384264
      5          6           0        0.739097   -0.000512   -0.009817
      6          6           0        1.469477    1.138129   -0.379362
      7          1           0        0.937192   -2.033473    0.688815
      8          1           0        3.397761    2.037798   -0.696269
      9          1           0        0.938071    2.032504   -0.708142
     10          6           0       -0.742883   -0.001384   -0.012974
     11          6           0       -1.474511    1.130858    0.372988
     12          6           0       -1.471490   -1.134716   -0.402503
     13          6           0       -2.864100    1.134318    0.378218
     14          6           0       -2.860735   -1.140009   -0.413286
     15          6           0       -3.582937   -0.003346   -0.018716
     16          1           0       -0.944110    2.021230    0.714069
     17          1           0       -0.938347   -2.023708   -0.742945
     18          1           0       -3.404263    2.023625    0.702274
     19          1           0       -3.398798   -2.029064   -0.741639
     20          1           0        3.397024   -2.035914    0.688457
     21          7           0       -4.995311   -0.005703   -0.022721
     22          6           0       -5.713915   -1.185510    0.315496
     23          6           0       -6.824749   -1.586223   -0.439679
     24          6           0       -5.336499   -1.964565    1.414395
     25          6           0       -7.543368   -2.726588   -0.103607
     26          6           0       -6.037549   -3.122582    1.739703
     27          6           0       -7.148838   -3.505710    0.986012
     28          1           0       -7.129554   -0.987536   -1.298124
     29          1           0       -4.477812   -1.664402    2.014832
     30          1           0       -8.408278   -3.036049   -0.689802
     31          1           0       -5.724570   -3.720924    2.598980
     32          6           0       -5.717056    1.178925   -0.336296
     33          6           0       -6.821807    1.565845    0.429047
     34          6           0       -5.346761    1.975943   -1.428789
     35          6           0       -7.543924    2.712298    0.107280
     36          6           0       -6.047800    3.134194   -1.738027
     37          6           0       -7.155651    3.506391   -0.973222
     38          1           0       -7.124426    0.956025    1.280239
     39          1           0       -4.491517    1.682511   -2.037555
     40          1           0       -8.407549    2.995534    0.714075
     41          1           0       -5.757368    3.754511   -2.585554
     42          7           0        4.991423    0.001999   -0.000060
     43          6           0        5.710552    1.183762    0.330631
     44          6           0        6.812654    1.584277   -0.431608
     45          6           0        5.340603    1.964026    1.435102
     46          6           0        7.532572    2.727778   -0.095183
     47          6           0        6.039551    3.119564    1.759528
     48          6           0        7.144632    3.505373    0.997606
     49          1           0        7.113605    0.987752   -1.292811
     50          1           0        4.486562    1.660323    2.040543
     51          1           0        8.393358    3.022713   -0.700462
     52          1           0        5.749024    3.727528    2.615933
     53          6           0        5.713955   -1.178690   -0.326778
     54          6           0        6.814458   -1.575861    0.439552
     55          6           0        5.349314   -1.961286   -1.431414
     56          6           0        7.537888   -2.718318    0.107058
     57          6           0        6.051756   -3.115796   -1.751909
     58          6           0        7.155153   -3.498257   -0.985865
     59          1           0        7.111509   -0.977436    1.300789
     60          1           0        4.496830   -1.660119   -2.040298
     61          1           0        8.397429   -3.010471    0.715458
     62          1           0        5.765438   -3.725350   -2.608604
     63          8           0        7.820509   -4.641023   -1.355507
     64          1           0        8.555246   -4.788670   -0.739309
     65          8           0        7.806379    4.648952    1.371018
     66          1           0        8.541702    4.800061    0.756350
     67          8           0       -7.887404   -4.628973    1.265636
     68          1           0       -7.503413   -5.071476    2.038990
     69          8           0       -7.819547    4.653451   -1.332021
     70          1           0       -8.560354    4.790553   -0.720672
 ---------------------------------------------------------------------

 SCF Done:  E(RLC-wHPBE) =  -1797.99256762     A.U. after   14 cycles

 The electronic state is 1-A.
 Alpha  occ. eigenvalues --  -18.88522 -18.88518 -18.88465 -18.88395 -14.11773
 Alpha  occ. eigenvalues --  -14.11718 -10.05013 -10.05012 -10.04953 -10.04885
 Alpha  occ. eigenvalues --  -10.02705 -10.02678 -10.02608 -10.02603 -10.02551
 Alpha  occ. eigenvalues --  -10.02510  -9.99592  -9.99587  -9.99535  -9.99465
 Alpha  occ. eigenvalues --   -9.99430  -9.99427  -9.99366  -9.99311  -9.99262
 Alpha  occ. eigenvalues --   -9.99260  -9.99206  -9.99146  -9.99105  -9.99090
 Alpha  occ. eigenvalues --   -9.98956  -9.98955  -9.98898  -9.98839  -9.98559
 Alpha  occ. eigenvalues --   -9.98552  -9.98546  -9.98544  -9.98315  -9.98309
 Alpha  occ. eigenvalues --   -9.98306  -9.98301  -1.07921  -1.07917  -1.07861
 Alpha  occ. eigenvalues --   -1.07793  -0.98946  -0.98888  -0.89384  -0.88924
 Alpha  occ. eigenvalues --   -0.88843  -0.88334  -0.87323  -0.86218  -0.80936
 Alpha  occ. eigenvalues --   -0.79259  -0.79207  -0.79105  -0.78731  -0.78649
 Alpha  occ. eigenvalues --   -0.78472  -0.77743  -0.77328  -0.77136  -0.75022
 Alpha  occ. eigenvalues --   -0.73015  -0.68740  -0.68034  -0.67449  -0.67263
 Alpha  occ. eigenvalues --   -0.66828  -0.66136  -0.65718  -0.65091  -0.64001
 Alpha  occ. eigenvalues --   -0.63238  -0.62535  -0.61391  -0.59811  -0.59716
 Alpha  occ. eigenvalues --   -0.59671  -0.59638  -0.58611  -0.58007  -0.57478
 Alpha  occ. eigenvalues --   -0.57061  -0.54796  -0.53427  -0.53216  -0.52023
 Alpha  occ. eigenvalues --   -0.51693  -0.51372  -0.49676  -0.49487  -0.49419
 Alpha  occ. eigenvalues --   -0.49370  -0.48884  -0.48774  -0.48542  -0.47696
 Alpha  occ. eigenvalues --   -0.47680  -0.47595  -0.47444  -0.47129  -0.46956
 Alpha  occ. eigenvalues --   -0.46854  -0.46648  -0.46534  -0.46408  -0.46309
 Alpha  occ. eigenvalues --   -0.45999  -0.45086  -0.44921  -0.44620  -0.43590
 Alpha  occ. eigenvalues --   -0.43475  -0.43113  -0.42742  -0.42477  -0.42402
 Alpha  occ. eigenvalues --   -0.40835  -0.40564  -0.40285  -0.40203  -0.39790
 Alpha  occ. eigenvalues --   -0.39574  -0.39460  -0.39226  -0.39161  -0.39009
 Alpha  occ. eigenvalues --   -0.38333  -0.36126  -0.34481  -0.32691  -0.32629
 Alpha  occ. eigenvalues --   -0.32180  -0.31934  -0.31308  -0.31202  -0.31168
 Alpha  occ. eigenvalues --   -0.29428  -0.29305  -0.29087  -0.23950  -0.22429
 Alpha virt. eigenvalues --    0.01404   0.02069   0.02157   0.03757   0.03847
 Alpha virt. eigenvalues --    0.04107   0.04208   0.04625   0.04982   0.05051
 Alpha virt. eigenvalues --    0.07549   0.08112   0.08169   0.08194   0.08269

 Mulliken charges:
               1
     1  C   -0.148308
     2  C    0.017401
     3  C   -0.150824
     4  C   -0.148251
     5  C    0.029684
     6  C   -0.150797
     7  H    0.119307
     8  H    0.144920
     9  H    0.120961
    10  C    0.030007
    11  C   -0.150978
    12  C   -0.150481
    13  C   -0.145630
    14  C   -0.149360
    15  C    0.012594
    16  H    0.120656
    17  H    0.120787
    18  H    0.144960
    19  H    0.144012
    20  H    0.144635
    21  N   -0.002148
    22  C   -0.113105
    23  C   -0.059455
    24  C   -0.084584
    25  C   -0.202940
    26  C   -0.175682
    27  C    0.118703
    28  H    0.134716
    29  H    0.143151
    30  H    0.117154
    31  H    0.106700
    32  C   -0.107121
    33  C   -0.081610
    34  C   -0.067264
    35  C   -0.172949
    36  C   -0.199688
    37  C    0.115590
    38  H    0.136462
    39  H    0.141811
    40  H    0.107247
    41  H    0.117357
    42  N   -0.001281
    43  C   -0.116114
    44  C   -0.080816
    45  C   -0.061584
    46  C   -0.173877
    47  C   -0.200774
    48  C    0.116292
    49  H    0.135838
    50  H    0.141486
    51  H    0.107489
    52  H    0.117339
    53  C   -0.114471
    54  C   -0.081522
    55  C   -0.062795
    56  C   -0.173853
    57  C   -0.200693
    58  C    0.116090
    59  H    0.135848
    60  H    0.142024
    61  H    0.107348
    62  H    0.117532
    63  O   -0.242645
    64  H    0.268422
    65  O   -0.242626
    66  H    0.268498
    67  O   -0.242965
    68  H    0.268489
    69  O   -0.242777
    70  H    0.268457
 Sum of Mulliken charges =  -0.00000

 Dipole moment (field-independent basis, Debye):
    X=              1.6796    Y=             -0.4218    Z=              2.0481  Tot=              2.6821
 Quadrupole moment (field-independent basis, Debye-Ang):
   XX=           -190.5328   YY=           -232.7366   ZZ=           -241.7734
   XY=             -5.2417   XZ=            -14.6886   YZ=            -12.0400

 Normal termination of Gaussian 16 at Mon Jan 18 09:01:08 2021.
