 Gaussian 16, Revision A.03,
 Gaussian 16:  EM64L-G16RevA.03 25-Dec-2016

 ----------------------------------------------------------------------
 #P LC-wHPBE/TZVP iop(3/107=0176600000, 3/108=0176600000) scf=(conver=6
 ,fermi,ndamp=35,noincfock,novaracc,vshift=500,xqc)
 ----------------------------------------------------------------------

 -------------
 H28 C36 N2 O4
 -------------
 Symbolic Z-matrix:
 Charge =  1 Multiplicity = 2

                         Standard orientation:
 ---------------------------------------------------------------------
 Center     Atomic      Atomic             Coordinates (Angstroms)
 Number     Number       Type             X           Y           Z
 ---------------------------------------------------------------------
      1          6           0        2.858499   -1.142103    0.374244
      2          6           0        3.579312    0.001087   -0.003359
      3          6           0        1.469111   -1.138314    0.362939
      4          6           0        2.858875    1.143435   -0.384264
      5          6           0        0.739097   -0.000512   -0.009817
      6          6           0        1.469477    1.138129   -0.379362
      7          1           0        0.937192   -2.033473    0.688815
      8          1           0        3.397761    2.037798   -0.696269
      9          1           0        0.938071    2.032504   -0.708142
     10          6           0       -0.742883   -0.001384   -0.012974
     11          6           0       -1.474511    1.130858    0.372988
     12          6           0       -1.471490   -1.134716   -0.402503
     13          6           0       -2.864100    1.134318    0.378218
     14          6           0       -2.860735   -1.140009   -0.413286
     15          6           0       -3.582937   -0.003346   -0.018716
     16          1           0       -0.944110    2.021230    0.714069
     17          1           0       -0.938347   -2.023708   -0.742945
     18          1           0       -3.404263    2.023625    0.702274
     19          1           0       -3.398798   -2.029064   -0.741639
     20          1           0        3.397024   -2.035914    0.688457
     21          7           0       -4.995311   -0.005703   -0.022721
     22          6           0       -5.713915   -1.185510    0.315496
     23          6           0       -6.824749   -1.586223   -0.439679
     24          6           0       -5.336499   -1.964565    1.414395
     25          6           0       -7.543368   -2.726588   -0.103607
     26          6           0       -6.037549   -3.122582    1.739703
     27          6           0       -7.148838   -3.505710    0.986012
     28          1           0       -7.129554   -0.987536   -1.298124
     29          1           0       -4.477812   -1.664402    2.014832
     30          1           0       -8.408278   -3.036049   -0.689802
     31          1           0       -5.724570   -3.720924    2.598980
     32          6           0       -5.717056    1.178925   -0.336296
     33          6           0       -6.821807    1.565845    0.429047
     34          6           0       -5.346761    1.975943   -1.428789
     35          6           0       -7.543924    2.712298    0.107280
     36          6           0       -6.047800    3.134194   -1.738027
     37          6           0       -7.155651    3.506391   -0.973222
     38          1           0       -7.124426    0.956025    1.280239
     39          1           0       -4.491517    1.682511   -2.037555
     40          1           0       -8.407549    2.995534    0.714075
     41          1           0       -5.757368    3.754511   -2.585554
     42          7           0        4.991423    0.001999   -0.000060
     43          6           0        5.710552    1.183762    0.330631
     44          6           0        6.812654    1.584277   -0.431608
     45          6           0        5.340603    1.964026    1.435102
     46          6           0        7.532572    2.727778   -0.095183
     47          6           0        6.039551    3.119564    1.759528
     48          6           0        7.144632    3.505373    0.997606
     49          1           0        7.113605    0.987752   -1.292811
     50          1           0        4.486562    1.660323    2.040543
     51          1           0        8.393358    3.022713   -0.700462
     52          1           0        5.749024    3.727528    2.615933
     53          6           0        5.713955   -1.178690   -0.326778
     54          6           0        6.814458   -1.575861    0.439552
     55          6           0        5.349314   -1.961286   -1.431414
     56          6           0        7.537888   -2.718318    0.107058
     57          6           0        6.051756   -3.115796   -1.751909
     58          6           0        7.155153   -3.498257   -0.985865
     59          1           0        7.111509   -0.977436    1.300789
     60          1           0        4.496830   -1.660119   -2.040298
     61          1           0        8.397429   -3.010471    0.715458
     62          1           0        5.765438   -3.725350   -2.608604
     63          8           0        7.820509   -4.641023   -1.355507
     64          1           0        8.555246   -4.788670   -0.739309
     65          8           0        7.806379    4.648952    1.371018
     66          1           0        8.541702    4.800061    0.756350
     67          8           0       -7.887404   -4.628973    1.265636
     68          1           0       -7.503413   -5.071476    2.038990
     69          8           0       -7.819547    4.653451   -1.332021
     70          1           0       -8.560354    4.790553   -0.720672
 ---------------------------------------------------------------------

 SCF Done:  E(ULC-wHPBE) =  -1797.76061111     A.U. after   24 cycles

 The electronic state is 2-A.
 Alpha  occ. eigenvalues --  -18.96862 -18.96801 -18.96674 -18.96668 -14.24793
 Alpha  occ. eigenvalues --  -14.24432 -10.14186 -10.14128 -10.14022 -10.13976
 Alpha  occ. eigenvalues --  -10.13972 -10.13866 -10.12313 -10.12276 -10.12087
 Alpha  occ. eigenvalues --  -10.12081 -10.10497 -10.10365 -10.09341 -10.09336
 Alpha  occ. eigenvalues --  -10.09301 -10.09298 -10.09233 -10.09219 -10.09143
 Alpha  occ. eigenvalues --  -10.09133 -10.09033 -10.08875 -10.08763 -10.08707
 Alpha  occ. eigenvalues --  -10.08702 -10.08698 -10.08605 -10.08604 -10.08422
 Alpha  occ. eigenvalues --  -10.08323 -10.08193 -10.08186 -10.07742 -10.07731
 Alpha  occ. eigenvalues --  -10.07602 -10.07599  -1.16185  -1.16122  -1.16003
 Alpha  occ. eigenvalues --   -1.15997  -1.10418  -1.10147  -1.00218  -0.98586
 Alpha  occ. eigenvalues --   -0.98234  -0.98042  -0.96839  -0.96195  -0.91660
 Alpha  occ. eigenvalues --   -0.89170  -0.88829  -0.88558  -0.87991  -0.87816
 Alpha  occ. eigenvalues --   -0.87677  -0.87507  -0.87337  -0.87185  -0.84716
 Alpha  occ. eigenvalues --   -0.83042  -0.78612  -0.77746  -0.76980  -0.76675
 Alpha  occ. eigenvalues --   -0.75870  -0.75696  -0.75331  -0.74773  -0.73736
 Alpha  occ. eigenvalues --   -0.73539  -0.71802  -0.71198  -0.69185  -0.68780
 Alpha  occ. eigenvalues --   -0.68607  -0.68525  -0.68118  -0.67952  -0.67165
 Alpha  occ. eigenvalues --   -0.66580  -0.65267  -0.63039  -0.62624  -0.61761
 Alpha  occ. eigenvalues --   -0.61177  -0.60909  -0.59779  -0.59231  -0.59037
 Alpha  occ. eigenvalues --   -0.58431  -0.58406  -0.58360  -0.58089  -0.57356
 Alpha  occ. eigenvalues --   -0.56847  -0.56778  -0.56549  -0.56461  -0.56399
 Alpha  occ. eigenvalues --   -0.56269  -0.55814  -0.55441  -0.55312  -0.55295
 Alpha  occ. eigenvalues --   -0.55168  -0.54690  -0.54441  -0.54238  -0.53884
 Alpha  occ. eigenvalues --   -0.53478  -0.52549  -0.52059  -0.51552  -0.51287
 Alpha  occ. eigenvalues --   -0.50410  -0.50185  -0.50173  -0.49929  -0.49342
 Alpha  occ. eigenvalues --   -0.49169  -0.48936  -0.48260  -0.48046  -0.48010
 Alpha  occ. eigenvalues --   -0.47966  -0.46679  -0.44901  -0.42393  -0.42242
 Alpha  occ. eigenvalues --   -0.41899  -0.41368  -0.41182  -0.41048  -0.40788
 Alpha  occ. eigenvalues --   -0.39220  -0.38423  -0.38285  -0.34380  -0.33255
 Alpha virt. eigenvalues --   -0.09465  -0.07777  -0.07545  -0.05784  -0.05671
 Alpha virt. eigenvalues --   -0.05620  -0.05343  -0.05318  -0.05150  -0.05020
 Alpha virt. eigenvalues --   -0.02369  -0.01108   0.00741   0.00927   0.00946

  Beta  occ. eigenvalues --  -18.96819 -18.96757 -18.96634 -18.96628 -14.24385
  Beta  occ. eigenvalues --  -14.24049 -10.14123 -10.14065 -10.13995 -10.13918
  Beta  occ. eigenvalues --  -10.13914 -10.13836 -10.12335 -10.12298 -10.12108
  Beta  occ. eigenvalues --  -10.12102 -10.10410 -10.10285 -10.09323 -10.09319
  Beta  occ. eigenvalues --  -10.09262 -10.09255 -10.09225 -10.09211 -10.09094
  Beta  occ. eigenvalues --  -10.09085 -10.08972 -10.08816 -10.08706 -10.08653
  Beta  occ. eigenvalues --  -10.08648 -10.08645 -10.08553 -10.08552 -10.08440
  Beta  occ. eigenvalues --  -10.08337 -10.08206 -10.08199 -10.07757 -10.07751
  Beta  occ. eigenvalues --  -10.07620 -10.07618  -1.16106  -1.16041  -1.15929
  Beta  occ. eigenvalues --   -1.15924  -1.09919  -1.09680  -1.00054  -0.98446
  Beta  occ. eigenvalues --   -0.98147  -0.97962  -0.96713  -0.96047  -0.91459
  Beta  occ. eigenvalues --   -0.89092  -0.88748  -0.88454  -0.87921  -0.87757
  Beta  occ. eigenvalues --   -0.87619  -0.87441  -0.87264  -0.87083  -0.84533
  Beta  occ. eigenvalues --   -0.82762  -0.78530  -0.77631  -0.76878  -0.76569
  Beta  occ. eigenvalues --   -0.75782  -0.75588  -0.75247  -0.74682  -0.73633
  Beta  occ. eigenvalues --   -0.73426  -0.71720  -0.71118  -0.69110  -0.68705
  Beta  occ. eigenvalues --   -0.68552  -0.68473  -0.68069  -0.67876  -0.67070
  Beta  occ. eigenvalues --   -0.66469  -0.65170  -0.62809  -0.62426  -0.61698
  Beta  occ. eigenvalues --   -0.61122  -0.60856  -0.59628  -0.59135  -0.58961
  Beta  occ. eigenvalues --   -0.58363  -0.58356  -0.58293  -0.58043  -0.57309
  Beta  occ. eigenvalues --   -0.56789  -0.56718  -0.56501  -0.56422  -0.56353
  Beta  occ. eigenvalues --   -0.56221  -0.55733  -0.55274  -0.55122  -0.55098
  Beta  occ. eigenvalues --   -0.55002  -0.54567  -0.54281  -0.54026  -0.53695
  Beta  occ. eigenvalues --   -0.53233  -0.52300  -0.51896  -0.51492  -0.51229
  Beta  occ. eigenvalues --   -0.50163  -0.50079  -0.50049  -0.49662  -0.49081
  Beta  occ. eigenvalues --   -0.48929  -0.48752  -0.48198  -0.48004  -0.47949
  Beta  occ. eigenvalues --   -0.47929  -0.46314  -0.43980  -0.42254  -0.42110
  Beta  occ. eigenvalues --   -0.41259  -0.41111  -0.41068  -0.40892  -0.40370
  Beta  occ. eigenvalues --   -0.37893  -0.37838  -0.37771  -0.30548
  Beta virt. eigenvalues --   -0.22219  -0.09125  -0.07537  -0.07304  -0.05512
  Beta virt. eigenvalues --   -0.05387  -0.05341  -0.05030  -0.04937  -0.04871
  Beta virt. eigenvalues --   -0.04714  -0.01830  -0.00495   0.00760   0.00943

 Mulliken charges and spin densities:
               1          2
     1  C   -0.135904   0.030317
     2  C    0.015387   0.034718
     3  C   -0.135472  -0.002316
     4  C   -0.135802   0.030246
     5  C    0.032458   0.055828
     6  C   -0.135429  -0.002425
     7  H    0.143418  -0.000238
     8  H    0.170043  -0.001337
     9  H    0.144968  -0.000245
    10  C    0.031136   0.060813
    11  C   -0.135599  -0.004674
    12  C   -0.135324  -0.005856
    13  C   -0.132397   0.033379
    14  C   -0.136302   0.034020
    15  C    0.009918   0.033431
    16  H    0.145660  -0.000123
    17  H    0.145824  -0.000071
    18  H    0.170326  -0.001485
    19  H    0.169699  -0.001490
    20  H    0.169789  -0.001340
    21  N    0.041557   0.180371
    22  C   -0.123681  -0.005748
    23  C   -0.048304   0.036788
    24  C   -0.077844   0.039879
    25  C   -0.194647  -0.016893
    26  C   -0.164091  -0.019573
    27  C    0.124471   0.045532
    28  H    0.153651  -0.001575
    29  H    0.154331  -0.002018
    30  H    0.145409   0.000836
    31  H    0.130675   0.000990
    32  C   -0.117331  -0.005376
    33  C   -0.069755   0.041045
    34  C   -0.060822   0.036296
    35  C   -0.160497  -0.016548
    36  C   -0.192095  -0.019981
    37  C    0.121622   0.046028
    38  H    0.154882  -0.001838
    39  H    0.153771  -0.001799
    40  H    0.134134   0.000749
    41  H    0.142900   0.001059
    42  N    0.039615   0.169431
    43  C   -0.126176  -0.005753
    44  C   -0.069750   0.038067
    45  C   -0.055927   0.033552
    46  C   -0.162221  -0.015524
    47  C   -0.193641  -0.018404
    48  C    0.121812   0.042172
    49  H    0.153611  -0.001694
    50  H    0.151970  -0.001677
    51  H    0.133324   0.000705
    52  H    0.141600   0.000995
    53  C   -0.124516  -0.005805
    54  C   -0.070420   0.038188
    55  C   -0.057106   0.033652
    56  C   -0.162187  -0.015571
    57  C   -0.193556  -0.018479
    58  C    0.121628   0.042296
    59  H    0.153626  -0.001699
    60  H    0.152531  -0.001681
    61  H    0.133204   0.000706
    62  H    0.141811   0.000996
    63  O   -0.217312   0.013785
    64  H    0.280441  -0.000339
    65  O   -0.217316   0.013758
    66  H    0.280511  -0.000338
    67  O   -0.215204   0.014875
    68  H    0.279959  -0.000367
    69  O   -0.216038   0.015150
    70  H    0.280997  -0.000375
 Sum of Mulliken charges =   1.00000   1.00000

 Dipole moment (field-independent basis, Debye):
    X=              1.0691    Y=             -0.4184    Z=              2.0826  Tot=              2.3780
 Quadrupole moment (field-independent basis, Debye-Ang):
   XX=            -17.4840   YY=           -191.8771   ZZ=           -231.1807
   XY=             -5.4433   XZ=            -14.9465   YZ=            -12.4682

 Normal termination of Gaussian 16 at Mon Jan 18 14:13:56 2021.
