 Gaussian 16, Revision A.03,
 Gaussian 16:  EM64L-G16RevA.03 25-Dec-2016

 ----------------------------------------------------------------------
 #P LC-wHPBE/TZVP iop(3/107=0156200000, 3/108=0156200000) scf=(conver=6
 ,fermi,ndamp=35,noincfock,novaracc,vshift=500,xqc)
 ----------------------------------------------------------------------

 -------------
 H28 C36 N2 O4
 -------------
 Symbolic Z-matrix:
 Charge =  0 Multiplicity = 1

                         Standard orientation:
 ---------------------------------------------------------------------
 Center     Atomic      Atomic             Coordinates (Angstroms)
 Number     Number       Type             X           Y           Z
 ---------------------------------------------------------------------
      1          6           0        2.858499   -1.142103    0.374244
      2          6           0        3.579312    0.001087   -0.003359
      3          6           0        1.469111   -1.138314    0.362939
      4          6           0        2.858875    1.143435   -0.384264
      5          6           0        0.739097   -0.000512   -0.009817
      6          6           0        1.469477    1.138129   -0.379362
      7          1           0        0.937192   -2.033473    0.688815
      8          1           0        3.397761    2.037798   -0.696269
      9          1           0        0.938071    2.032504   -0.708142
     10          6           0       -0.742883   -0.001384   -0.012974
     11          6           0       -1.474511    1.130858    0.372988
     12          6           0       -1.471490   -1.134716   -0.402503
     13          6           0       -2.864100    1.134318    0.378218
     14          6           0       -2.860735   -1.140009   -0.413286
     15          6           0       -3.582937   -0.003346   -0.018716
     16          1           0       -0.944110    2.021230    0.714069
     17          1           0       -0.938347   -2.023708   -0.742945
     18          1           0       -3.404263    2.023625    0.702274
     19          1           0       -3.398798   -2.029064   -0.741639
     20          1           0        3.397024   -2.035914    0.688457
     21          7           0       -4.995311   -0.005703   -0.022721
     22          6           0       -5.713915   -1.185510    0.315496
     23          6           0       -6.824749   -1.586223   -0.439679
     24          6           0       -5.336499   -1.964565    1.414395
     25          6           0       -7.543368   -2.726588   -0.103607
     26          6           0       -6.037549   -3.122582    1.739703
     27          6           0       -7.148838   -3.505710    0.986012
     28          1           0       -7.129554   -0.987536   -1.298124
     29          1           0       -4.477812   -1.664402    2.014832
     30          1           0       -8.408278   -3.036049   -0.689802
     31          1           0       -5.724570   -3.720924    2.598980
     32          6           0       -5.717056    1.178925   -0.336296
     33          6           0       -6.821807    1.565845    0.429047
     34          6           0       -5.346761    1.975943   -1.428789
     35          6           0       -7.543924    2.712298    0.107280
     36          6           0       -6.047800    3.134194   -1.738027
     37          6           0       -7.155651    3.506391   -0.973222
     38          1           0       -7.124426    0.956025    1.280239
     39          1           0       -4.491517    1.682511   -2.037555
     40          1           0       -8.407549    2.995534    0.714075
     41          1           0       -5.757368    3.754511   -2.585554
     42          7           0        4.991423    0.001999   -0.000060
     43          6           0        5.710552    1.183762    0.330631
     44          6           0        6.812654    1.584277   -0.431608
     45          6           0        5.340603    1.964026    1.435102
     46          6           0        7.532572    2.727778   -0.095183
     47          6           0        6.039551    3.119564    1.759528
     48          6           0        7.144632    3.505373    0.997606
     49          1           0        7.113605    0.987752   -1.292811
     50          1           0        4.486562    1.660323    2.040543
     51          1           0        8.393358    3.022713   -0.700462
     52          1           0        5.749024    3.727528    2.615933
     53          6           0        5.713955   -1.178690   -0.326778
     54          6           0        6.814458   -1.575861    0.439552
     55          6           0        5.349314   -1.961286   -1.431414
     56          6           0        7.537888   -2.718318    0.107058
     57          6           0        6.051756   -3.115796   -1.751909
     58          6           0        7.155153   -3.498257   -0.985865
     59          1           0        7.111509   -0.977436    1.300789
     60          1           0        4.496830   -1.660119   -2.040298
     61          1           0        8.397429   -3.010471    0.715458
     62          1           0        5.765438   -3.725350   -2.608604
     63          8           0        7.820509   -4.641023   -1.355507
     64          1           0        8.555246   -4.788670   -0.739309
     65          8           0        7.806379    4.648952    1.371018
     66          1           0        8.541702    4.800061    0.756350
     67          8           0       -7.887404   -4.628973    1.265636
     68          1           0       -7.503413   -5.071476    2.038990
     69          8           0       -7.819547    4.653451   -1.332021
     70          1           0       -8.560354    4.790553   -0.720672
 ---------------------------------------------------------------------

 SCF Done:  E(RLC-wHPBE) =  -1797.93755034     A.U. after   14 cycles

 The electronic state is 1-A.
 Alpha  occ. eigenvalues --  -18.87224 -18.87220 -18.87167 -18.87098 -14.10491
 Alpha  occ. eigenvalues --  -14.10437 -10.03610 -10.03609 -10.03550 -10.03482
 Alpha  occ. eigenvalues --  -10.01291 -10.01265 -10.01215 -10.01210 -10.01158
 Alpha  occ. eigenvalues --  -10.01118  -9.98213  -9.98208  -9.98156  -9.98087
 Alpha  occ. eigenvalues --   -9.98043  -9.98040  -9.97979  -9.97926  -9.97876
 Alpha  occ. eigenvalues --   -9.97875  -9.97822  -9.97762  -9.97706  -9.97692
 Alpha  occ. eigenvalues --   -9.97582  -9.97581  -9.97524  -9.97465  -9.97160
 Alpha  occ. eigenvalues --   -9.97153  -9.97148  -9.97146  -9.96932  -9.96927
 Alpha  occ. eigenvalues --   -9.96924  -9.96918  -1.06549  -1.06546  -1.06490
 Alpha  occ. eigenvalues --   -1.06422  -0.97524  -0.97467  -0.87910  -0.87469
 Alpha  occ. eigenvalues --   -0.87387  -0.86876  -0.85877  -0.84773  -0.79511
 Alpha  occ. eigenvalues --   -0.77853  -0.77803  -0.77692  -0.77319  -0.77247
 Alpha  occ. eigenvalues --   -0.77069  -0.76330  -0.75940  -0.75726  -0.73661
 Alpha  occ. eigenvalues --   -0.71668  -0.67428  -0.66736  -0.66164  -0.65956
 Alpha  occ. eigenvalues --   -0.65509  -0.64832  -0.64411  -0.63786  -0.62723
 Alpha  occ. eigenvalues --   -0.61940  -0.61276  -0.60126  -0.58572  -0.58489
 Alpha  occ. eigenvalues --   -0.58452  -0.58411  -0.57351  -0.56785  -0.56288
 Alpha  occ. eigenvalues --   -0.55886  -0.53582  -0.52225  -0.52014  -0.50843
 Alpha  occ. eigenvalues --   -0.50517  -0.50186  -0.48515  -0.48330  -0.48263
 Alpha  occ. eigenvalues --   -0.48213  -0.47719  -0.47609  -0.47377  -0.46571
 Alpha  occ. eigenvalues --   -0.46541  -0.46463  -0.46317  -0.45991  -0.45822
 Alpha  occ. eigenvalues --   -0.45693  -0.45447  -0.45330  -0.45220  -0.45126
 Alpha  occ. eigenvalues --   -0.44845  -0.43998  -0.43816  -0.43526  -0.42474
 Alpha  occ. eigenvalues --   -0.42387  -0.41972  -0.41662  -0.41366  -0.41298
 Alpha  occ. eigenvalues --   -0.39719  -0.39436  -0.39160  -0.39076  -0.38737
 Alpha  occ. eigenvalues --   -0.38530  -0.38414  -0.38199  -0.38133  -0.37990
 Alpha  occ. eigenvalues --   -0.37294  -0.35100  -0.33449  -0.31792  -0.31730
 Alpha  occ. eigenvalues --   -0.31277  -0.31048  -0.30408  -0.30319  -0.30274
 Alpha  occ. eigenvalues --   -0.28577  -0.28456  -0.28272  -0.23237  -0.21746
 Alpha virt. eigenvalues --    0.00812   0.01395   0.01484   0.03086   0.03176
 Alpha virt. eigenvalues --    0.03380   0.03480   0.03905   0.04303   0.04331
 Alpha virt. eigenvalues --    0.06817   0.07380   0.07436   0.07462   0.07536

 Mulliken charges:
               1
     1  C   -0.147862
     2  C    0.018546
     3  C   -0.148241
     4  C   -0.147803
     5  C    0.030381
     6  C   -0.148220
     7  H    0.116940
     8  H    0.142177
     9  H    0.118599
    10  C    0.030693
    11  C   -0.148375
    12  C   -0.147874
    13  C   -0.145193
    14  C   -0.148991
    15  C    0.013792
    16  H    0.118291
    17  H    0.118422
    18  H    0.142215
    19  H    0.141264
    20  H    0.141892
    21  N    0.004597
    22  C   -0.112427
    23  C   -0.059549
    24  C   -0.084700
    25  C   -0.200087
    26  C   -0.172718
    27  C    0.119232
    28  H    0.132116
    29  H    0.140576
    30  H    0.115208
    31  H    0.104774
    32  C   -0.106515
    33  C   -0.081001
    34  C   -0.067958
    35  C   -0.170027
    36  C   -0.196865
    37  C    0.116153
    38  H    0.133947
    39  H    0.139166
    40  H    0.105294
    41  H    0.115439
    42  N    0.005458
    43  C   -0.115443
    44  C   -0.080308
    45  C   -0.062316
    46  C   -0.170921
    47  C   -0.197905
    48  C    0.116820
    49  H    0.133334
    50  H    0.138838
    51  H    0.105533
    52  H    0.115418
    53  C   -0.113799
    54  C   -0.080999
    55  C   -0.063527
    56  C   -0.170901
    57  C   -0.197829
    58  C    0.116622
    59  H    0.133342
    60  H    0.139374
    61  H    0.105392
    62  H    0.115610
    63  O   -0.242588
    64  H    0.268376
    65  O   -0.242568
    66  H    0.268453
    67  O   -0.242914
    68  H    0.268449
    69  O   -0.242717
    70  H    0.268412
 Sum of Mulliken charges =  -0.00000

 Dipole moment (field-independent basis, Debye):
    X=              1.6727    Y=             -0.4198    Z=              2.0402  Tot=              2.6714
 Quadrupole moment (field-independent basis, Debye-Ang):
   XX=           -190.1771   YY=           -232.5475   ZZ=           -241.9512
   XY=             -5.2259   XZ=            -14.6329   YZ=            -11.9974

 Normal termination of Gaussian 16 at Mon Jan 18 07:16:52 2021.
