 Gaussian 16, Revision A.03,
 Gaussian 16:  EM64L-G16RevA.03 25-Dec-2016

 ----------------------------------------------------------------------
 #P LC-wHPBE/TZVP iop(3/107=0173600000, 3/108=0173600000) scf=(conver=6
 ,fermi,ndamp=35,noincfock,novaracc,vshift=500,xqc)
 ----------------------------------------------------------------------

 -------------
 H28 C36 N2 O4
 -------------
 Symbolic Z-matrix:
 Charge =  1 Multiplicity = 2

                         Standard orientation:
 ---------------------------------------------------------------------
 Center     Atomic      Atomic             Coordinates (Angstroms)
 Number     Number       Type             X           Y           Z
 ---------------------------------------------------------------------
      1          6           0        2.858499   -1.142103    0.374244
      2          6           0        3.579312    0.001087   -0.003359
      3          6           0        1.469111   -1.138314    0.362939
      4          6           0        2.858875    1.143435   -0.384264
      5          6           0        0.739097   -0.000512   -0.009817
      6          6           0        1.469477    1.138129   -0.379362
      7          1           0        0.937192   -2.033473    0.688815
      8          1           0        3.397761    2.037798   -0.696269
      9          1           0        0.938071    2.032504   -0.708142
     10          6           0       -0.742883   -0.001384   -0.012974
     11          6           0       -1.474511    1.130858    0.372988
     12          6           0       -1.471490   -1.134716   -0.402503
     13          6           0       -2.864100    1.134318    0.378218
     14          6           0       -2.860735   -1.140009   -0.413286
     15          6           0       -3.582937   -0.003346   -0.018716
     16          1           0       -0.944110    2.021230    0.714069
     17          1           0       -0.938347   -2.023708   -0.742945
     18          1           0       -3.404263    2.023625    0.702274
     19          1           0       -3.398798   -2.029064   -0.741639
     20          1           0        3.397024   -2.035914    0.688457
     21          7           0       -4.995311   -0.005703   -0.022721
     22          6           0       -5.713915   -1.185510    0.315496
     23          6           0       -6.824749   -1.586223   -0.439679
     24          6           0       -5.336499   -1.964565    1.414395
     25          6           0       -7.543368   -2.726588   -0.103607
     26          6           0       -6.037549   -3.122582    1.739703
     27          6           0       -7.148838   -3.505710    0.986012
     28          1           0       -7.129554   -0.987536   -1.298124
     29          1           0       -4.477812   -1.664402    2.014832
     30          1           0       -8.408278   -3.036049   -0.689802
     31          1           0       -5.724570   -3.720924    2.598980
     32          6           0       -5.717056    1.178925   -0.336296
     33          6           0       -6.821807    1.565845    0.429047
     34          6           0       -5.346761    1.975943   -1.428789
     35          6           0       -7.543924    2.712298    0.107280
     36          6           0       -6.047800    3.134194   -1.738027
     37          6           0       -7.155651    3.506391   -0.973222
     38          1           0       -7.124426    0.956025    1.280239
     39          1           0       -4.491517    1.682511   -2.037555
     40          1           0       -8.407549    2.995534    0.714075
     41          1           0       -5.757368    3.754511   -2.585554
     42          7           0        4.991423    0.001999   -0.000060
     43          6           0        5.710552    1.183762    0.330631
     44          6           0        6.812654    1.584277   -0.431608
     45          6           0        5.340603    1.964026    1.435102
     46          6           0        7.532572    2.727778   -0.095183
     47          6           0        6.039551    3.119564    1.759528
     48          6           0        7.144632    3.505373    0.997606
     49          1           0        7.113605    0.987752   -1.292811
     50          1           0        4.486562    1.660323    2.040543
     51          1           0        8.393358    3.022713   -0.700462
     52          1           0        5.749024    3.727528    2.615933
     53          6           0        5.713955   -1.178690   -0.326778
     54          6           0        6.814458   -1.575861    0.439552
     55          6           0        5.349314   -1.961286   -1.431414
     56          6           0        7.537888   -2.718318    0.107058
     57          6           0        6.051756   -3.115796   -1.751909
     58          6           0        7.155153   -3.498257   -0.985865
     59          1           0        7.111509   -0.977436    1.300789
     60          1           0        4.496830   -1.660119   -2.040298
     61          1           0        8.397429   -3.010471    0.715458
     62          1           0        5.765438   -3.725350   -2.608604
     63          8           0        7.820509   -4.641023   -1.355507
     64          1           0        8.555246   -4.788670   -0.739309
     65          8           0        7.806379    4.648952    1.371018
     66          1           0        8.541702    4.800061    0.756350
     67          8           0       -7.887404   -4.628973    1.265636
     68          1           0       -7.503413   -5.071476    2.038990
     69          8           0       -7.819547    4.653451   -1.332021
     70          1           0       -8.560354    4.790553   -0.720672
 ---------------------------------------------------------------------

 SCF Done:  E(ULC-wHPBE) =  -1797.75427472     A.U. after   23 cycles

 The electronic state is 2-A.
 Alpha  occ. eigenvalues --  -18.96702 -18.96638 -18.96526 -18.96519 -14.24610
 Alpha  occ. eigenvalues --  -14.24267 -10.14009 -10.13952 -10.13830 -10.13810
 Alpha  occ. eigenvalues --  -10.13806 -10.13681 -10.12137 -10.12100 -10.11921
 Alpha  occ. eigenvalues --  -10.11915 -10.10306 -10.10180 -10.09155 -10.09149
 Alpha  occ. eigenvalues --  -10.09114 -10.09112 -10.09050 -10.09036 -10.08965
 Alpha  occ. eigenvalues --  -10.08955 -10.08856 -10.08697 -10.08586 -10.08540
 Alpha  occ. eigenvalues --  -10.08534 -10.08520 -10.08438 -10.08437 -10.08249
 Alpha  occ. eigenvalues --  -10.08151 -10.08030 -10.08023 -10.07571 -10.07560
 Alpha  occ. eigenvalues --  -10.07440 -10.07438  -1.16015  -1.15951  -1.15843
 Alpha  occ. eigenvalues --   -1.15837  -1.10227  -1.09969  -1.00022  -0.98396
 Alpha  occ. eigenvalues --   -0.98049  -0.97868  -0.96658  -0.96015  -0.91474
 Alpha  occ. eigenvalues --   -0.88986  -0.88652  -0.88381  -0.87812  -0.87642
 Alpha  occ. eigenvalues --   -0.87503  -0.87333  -0.87164  -0.87011  -0.84546
 Alpha  occ. eigenvalues --   -0.82872  -0.78447  -0.77576  -0.76819  -0.76512
 Alpha  occ. eigenvalues --   -0.75711  -0.75535  -0.75168  -0.74610  -0.73575
 Alpha  occ. eigenvalues --   -0.73374  -0.71644  -0.71040  -0.69024  -0.68627
 Alpha  occ. eigenvalues --   -0.68453  -0.68376  -0.67971  -0.67800  -0.67016
 Alpha  occ. eigenvalues --   -0.66440  -0.65111  -0.62884  -0.62481  -0.61610
 Alpha  occ. eigenvalues --   -0.61029  -0.60768  -0.59627  -0.59080  -0.58885
 Alpha  occ. eigenvalues --   -0.58293  -0.58262  -0.58216  -0.57953  -0.57204
 Alpha  occ. eigenvalues --   -0.56700  -0.56638  -0.56411  -0.56320  -0.56263
 Alpha  occ. eigenvalues --   -0.56131  -0.55679  -0.55294  -0.55161  -0.55152
 Alpha  occ. eigenvalues --   -0.55025  -0.54550  -0.54295  -0.54101  -0.53739
 Alpha  occ. eigenvalues --   -0.53337  -0.52413  -0.51925  -0.51420  -0.51159
 Alpha  occ. eigenvalues --   -0.50273  -0.50052  -0.50035  -0.49795  -0.49201
 Alpha  occ. eigenvalues --   -0.49039  -0.48800  -0.48131  -0.47918  -0.47890
 Alpha  occ. eigenvalues --   -0.47847  -0.46546  -0.44770  -0.42274  -0.42130
 Alpha  occ. eigenvalues --   -0.41782  -0.41255  -0.41078  -0.40940  -0.40684
 Alpha  occ. eigenvalues --   -0.39116  -0.38319  -0.38191  -0.34288  -0.33165
 Alpha virt. eigenvalues --   -0.09525  -0.07850  -0.07622  -0.05860  -0.05750
 Alpha virt. eigenvalues --   -0.05706  -0.05422  -0.05398  -0.05232  -0.05111
 Alpha virt. eigenvalues --   -0.02455  -0.01194   0.00656   0.00835   0.00859

  Beta  occ. eigenvalues --  -18.96659 -18.96594 -18.96486 -18.96479 -14.24204
  Beta  occ. eigenvalues --  -14.23885 -10.13947 -10.13890 -10.13803 -10.13752
  Beta  occ. eigenvalues --  -10.13748 -10.13652 -10.12159 -10.12122 -10.11942
  Beta  occ. eigenvalues --  -10.11936 -10.10220 -10.10100 -10.09135 -10.09132
  Beta  occ. eigenvalues --  -10.09077 -10.09069 -10.09042 -10.09028 -10.08916
  Beta  occ. eigenvalues --  -10.08907 -10.08795 -10.08638 -10.08530 -10.08485
  Beta  occ. eigenvalues --  -10.08480 -10.08467 -10.08386 -10.08385 -10.08267
  Beta  occ. eigenvalues --  -10.08165 -10.08043 -10.08036 -10.07586 -10.07579
  Beta  occ. eigenvalues --  -10.07458 -10.07456  -1.15935  -1.15870  -1.15769
  Beta  occ. eigenvalues --   -1.15764  -1.09729  -1.09503  -0.99860  -0.98257
  Beta  occ. eigenvalues --   -0.97962  -0.97788  -0.96533  -0.95868  -0.91274
  Beta  occ. eigenvalues --   -0.88908  -0.88571  -0.88277  -0.87742  -0.87583
  Beta  occ. eigenvalues --   -0.87445  -0.87268  -0.87090  -0.86909  -0.84364
  Beta  occ. eigenvalues --   -0.82594  -0.78365  -0.77462  -0.76717  -0.76408
  Beta  occ. eigenvalues --   -0.75624  -0.75426  -0.75084  -0.74519  -0.73472
  Beta  occ. eigenvalues --   -0.73261  -0.71563  -0.70960  -0.68950  -0.68552
  Beta  occ. eigenvalues --   -0.68399  -0.68324  -0.67923  -0.67724  -0.66921
  Beta  occ. eigenvalues --   -0.66329  -0.65015  -0.62655  -0.62284  -0.61547
  Beta  occ. eigenvalues --   -0.60974  -0.60715  -0.59476  -0.58985  -0.58809
  Beta  occ. eigenvalues --   -0.58224  -0.58212  -0.58148  -0.57907  -0.57158
  Beta  occ. eigenvalues --   -0.56641  -0.56579  -0.56364  -0.56281  -0.56218
  Beta  occ. eigenvalues --   -0.56083  -0.55600  -0.55127  -0.54972  -0.54956
  Beta  occ. eigenvalues --   -0.54858  -0.54428  -0.54138  -0.53892  -0.53548
  Beta  occ. eigenvalues --   -0.53092  -0.52167  -0.51765  -0.51360  -0.51101
  Beta  occ. eigenvalues --   -0.50029  -0.49945  -0.49913  -0.49529  -0.48944
  Beta  occ. eigenvalues --   -0.48801  -0.48619  -0.48069  -0.47876  -0.47829
  Beta  occ. eigenvalues --   -0.47810  -0.46186  -0.43866  -0.42135  -0.41996
  Beta  occ. eigenvalues --   -0.41146  -0.41006  -0.40963  -0.40787  -0.40272
  Beta  occ. eigenvalues --   -0.37807  -0.37749  -0.37680  -0.30500
  Beta virt. eigenvalues --   -0.22213  -0.09182  -0.07612  -0.07384  -0.05591
  Beta virt. eigenvalues --   -0.05474  -0.05424  -0.05114  -0.05023  -0.04961
  Beta virt. eigenvalues --   -0.04799  -0.01922  -0.00591   0.00674   0.00852

 Mulliken charges and spin densities:
               1          2
     1  C   -0.135832   0.030315
     2  C    0.015482   0.034369
     3  C   -0.135248  -0.002241
     4  C   -0.135730   0.030245
     5  C    0.032533   0.055570
     6  C   -0.135205  -0.002350
     7  H    0.143090  -0.000240
     8  H    0.169630  -0.001333
     9  H    0.144642  -0.000246
    10  C    0.031256   0.060248
    11  C   -0.135366  -0.004445
    12  C   -0.135089  -0.005622
    13  C   -0.132379   0.033185
    14  C   -0.136295   0.033815
    15  C    0.010044   0.033158
    16  H    0.145290  -0.000131
    17  H    0.145453  -0.000080
    18  H    0.169895  -0.001474
    19  H    0.169267  -0.001478
    20  H    0.169375  -0.001336
    21  N    0.042069   0.179538
    22  C   -0.123466  -0.005410
    23  C   -0.048325   0.036608
    24  C   -0.077832   0.039700
    25  C   -0.194274  -0.016658
    26  C   -0.163663  -0.019292
    27  C    0.124520   0.045384
    28  H    0.153296  -0.001560
    29  H    0.154005  -0.001998
    30  H    0.145149   0.000822
    31  H    0.130417   0.000973
    32  C   -0.117127  -0.005038
    33  C   -0.069699   0.040863
    34  C   -0.060872   0.036119
    35  C   -0.160094  -0.016298
    36  C   -0.191705  -0.019711
    37  C    0.121665   0.045883
    38  H    0.154537  -0.001823
    39  H    0.153437  -0.001779
    40  H    0.133874   0.000735
    41  H    0.142645   0.001043
    42  N    0.040293   0.169164
    43  C   -0.125992  -0.005430
    44  C   -0.069673   0.038003
    45  C   -0.055951   0.033486
    46  C   -0.161793  -0.015334
    47  C   -0.193233  -0.018197
    48  C    0.121894   0.042166
    49  H    0.153298  -0.001685
    50  H    0.151690  -0.001662
    51  H    0.133105   0.000693
    52  H    0.141393   0.000981
    53  C   -0.124331  -0.005482
    54  C   -0.070342   0.038124
    55  C   -0.057130   0.033585
    56  C   -0.161759  -0.015380
    57  C   -0.193149  -0.018271
    58  C    0.121711   0.042289
    59  H    0.153312  -0.001690
    60  H    0.152250  -0.001666
    61  H    0.132984   0.000695
    62  H    0.141604   0.000983
    63  O   -0.217207   0.013920
    64  H    0.280468  -0.000341
    65  O   -0.217208   0.013893
    66  H    0.280536  -0.000340
    67  O   -0.215143   0.014968
    68  H    0.279965  -0.000368
    69  O   -0.215958   0.015247
    70  H    0.280996  -0.000377
 Sum of Mulliken charges =   1.00000   1.00000

 Dipole moment (field-independent basis, Debye):
    X=              1.0962    Y=             -0.4179    Z=              2.0817  Tot=              2.3895
 Quadrupole moment (field-independent basis, Debye-Ang):
   XX=            -17.2158   YY=           -191.7865   ZZ=           -231.1915
   XY=             -5.4427   XZ=            -14.9393   YZ=            -12.4537

 Normal termination of Gaussian 16 at Mon Jan 18 11:29:24 2021.
