 Gaussian 16, Revision A.03,
 Gaussian 16:  EM64L-G16RevA.03 25-Dec-2016

 ----------------------------------------------------------------------
 #P LC-wHPBE/TZVP iop(3/107=0221900000, 3/108=0221900000) scf=(conver=6
 ,fermi,ndamp=35,noincfock,novaracc,vshift=500,xqc)
 ----------------------------------------------------------------------

 -------------
 H28 C36 N2 O4
 -------------
 Symbolic Z-matrix:
 Charge =  0 Multiplicity = 1

                         Standard orientation:
 ---------------------------------------------------------------------
 Center     Atomic      Atomic             Coordinates (Angstroms)
 Number     Number       Type             X           Y           Z
 ---------------------------------------------------------------------
      1          6           0        2.858499   -1.142103    0.374244
      2          6           0        3.579312    0.001087   -0.003359
      3          6           0        1.469111   -1.138314    0.362939
      4          6           0        2.858875    1.143435   -0.384264
      5          6           0        0.739097   -0.000512   -0.009817
      6          6           0        1.469477    1.138129   -0.379362
      7          1           0        0.937192   -2.033473    0.688815
      8          1           0        3.397761    2.037798   -0.696269
      9          1           0        0.938071    2.032504   -0.708142
     10          6           0       -0.742883   -0.001384   -0.012974
     11          6           0       -1.474511    1.130858    0.372988
     12          6           0       -1.471490   -1.134716   -0.402503
     13          6           0       -2.864100    1.134318    0.378218
     14          6           0       -2.860735   -1.140009   -0.413286
     15          6           0       -3.582937   -0.003346   -0.018716
     16          1           0       -0.944110    2.021230    0.714069
     17          1           0       -0.938347   -2.023708   -0.742945
     18          1           0       -3.404263    2.023625    0.702274
     19          1           0       -3.398798   -2.029064   -0.741639
     20          1           0        3.397024   -2.035914    0.688457
     21          7           0       -4.995311   -0.005703   -0.022721
     22          6           0       -5.713915   -1.185510    0.315496
     23          6           0       -6.824749   -1.586223   -0.439679
     24          6           0       -5.336499   -1.964565    1.414395
     25          6           0       -7.543368   -2.726588   -0.103607
     26          6           0       -6.037549   -3.122582    1.739703
     27          6           0       -7.148838   -3.505710    0.986012
     28          1           0       -7.129554   -0.987536   -1.298124
     29          1           0       -4.477812   -1.664402    2.014832
     30          1           0       -8.408278   -3.036049   -0.689802
     31          1           0       -5.724570   -3.720924    2.598980
     32          6           0       -5.717056    1.178925   -0.336296
     33          6           0       -6.821807    1.565845    0.429047
     34          6           0       -5.346761    1.975943   -1.428789
     35          6           0       -7.543924    2.712298    0.107280
     36          6           0       -6.047800    3.134194   -1.738027
     37          6           0       -7.155651    3.506391   -0.973222
     38          1           0       -7.124426    0.956025    1.280239
     39          1           0       -4.491517    1.682511   -2.037555
     40          1           0       -8.407549    2.995534    0.714075
     41          1           0       -5.757368    3.754511   -2.585554
     42          7           0        4.991423    0.001999   -0.000060
     43          6           0        5.710552    1.183762    0.330631
     44          6           0        6.812654    1.584277   -0.431608
     45          6           0        5.340603    1.964026    1.435102
     46          6           0        7.532572    2.727778   -0.095183
     47          6           0        6.039551    3.119564    1.759528
     48          6           0        7.144632    3.505373    0.997606
     49          1           0        7.113605    0.987752   -1.292811
     50          1           0        4.486562    1.660323    2.040543
     51          1           0        8.393358    3.022713   -0.700462
     52          1           0        5.749024    3.727528    2.615933
     53          6           0        5.713955   -1.178690   -0.326778
     54          6           0        6.814458   -1.575861    0.439552
     55          6           0        5.349314   -1.961286   -1.431414
     56          6           0        7.537888   -2.718318    0.107058
     57          6           0        6.051756   -3.115796   -1.751909
     58          6           0        7.155153   -3.498257   -0.985865
     59          1           0        7.111509   -0.977436    1.300789
     60          1           0        4.496830   -1.660119   -2.040298
     61          1           0        8.397429   -3.010471    0.715458
     62          1           0        5.765438   -3.725350   -2.608604
     63          8           0        7.820509   -4.641023   -1.355507
     64          1           0        8.555246   -4.788670   -0.739309
     65          8           0        7.806379    4.648952    1.371018
     66          1           0        8.541702    4.800061    0.756350
     67          8           0       -7.887404   -4.628973    1.265636
     68          1           0       -7.503413   -5.071476    2.038990
     69          8           0       -7.819547    4.653451   -1.332021
     70          1           0       -8.560354    4.790553   -0.720672
 ---------------------------------------------------------------------

 SCF Done:  E(RLC-wHPBE) =  -1798.08354504     A.U. after   14 cycles

 The electronic state is 1-A.
 Alpha  occ. eigenvalues --  -18.90707 -18.90702 -18.90649 -18.90578 -14.13956
 Alpha  occ. eigenvalues --  -14.13900 -10.07412 -10.07410 -10.07351 -10.07281
 Alpha  occ. eigenvalues --  -10.05116 -10.05089 -10.04986 -10.04981 -10.04928
 Alpha  occ. eigenvalues --  -10.04887 -10.01943 -10.01938 -10.01887 -10.01815
 Alpha  occ. eigenvalues --  -10.01798 -10.01795 -10.01734 -10.01678 -10.01628
 Alpha  occ. eigenvalues --  -10.01626 -10.01571 -10.01510 -10.01483 -10.01468
 Alpha  occ. eigenvalues --  -10.01299 -10.01298 -10.01240 -10.01180 -10.00941
 Alpha  occ. eigenvalues --  -10.00934 -10.00928 -10.00926 -10.00671 -10.00666
 Alpha  occ. eigenvalues --  -10.00663 -10.00657  -1.10246  -1.10242  -1.10186
 Alpha  occ. eigenvalues --   -1.10117  -1.01379  -1.01321  -0.91904  -0.91407
 Alpha  occ. eigenvalues --   -0.91324  -0.90819  -0.89779  -0.88670  -0.83335
 Alpha  occ. eigenvalues --   -0.81623  -0.81568  -0.81482  -0.81108  -0.81005
 Alpha  occ. eigenvalues --   -0.80829  -0.80111  -0.79647  -0.79498  -0.77284
 Alpha  occ. eigenvalues --   -0.75245  -0.70896  -0.70163  -0.69553  -0.69407
 Alpha  occ. eigenvalues --   -0.68996  -0.68276  -0.67858  -0.67227  -0.66084
 Alpha  occ. eigenvalues --   -0.65359  -0.64582  -0.63445  -0.61806  -0.61694
 Alpha  occ. eigenvalues --   -0.61623  -0.61609  -0.60640  -0.59966  -0.59377
 Alpha  occ. eigenvalues --   -0.58938  -0.56733  -0.55357  -0.55145  -0.53907
 Alpha  occ. eigenvalues --   -0.53571  -0.53261  -0.51521  -0.51325  -0.51253
 Alpha  occ. eigenvalues --   -0.51209  -0.50738  -0.50623  -0.50388  -0.49492
 Alpha  occ. eigenvalues --   -0.49480  -0.49397  -0.49236  -0.48956  -0.48760
 Alpha  occ. eigenvalues --   -0.48711  -0.48571  -0.48452  -0.48273  -0.48168
 Alpha  occ. eigenvalues --   -0.47823  -0.46807  -0.46676  -0.46350  -0.45386
 Alpha  occ. eigenvalues --   -0.45198  -0.44868  -0.44467  -0.44254  -0.44081
 Alpha  occ. eigenvalues --   -0.42595  -0.42335  -0.42043  -0.41963  -0.41431
 Alpha  occ. eigenvalues --   -0.41200  -0.41094  -0.40827  -0.40763  -0.40598
 Alpha  occ. eigenvalues --   -0.39943  -0.37695  -0.36064  -0.34008  -0.33948
 Alpha  occ. eigenvalues --   -0.33516  -0.33239  -0.32634  -0.32499  -0.32480
 Alpha  occ. eigenvalues --   -0.30679  -0.30553  -0.30274  -0.24999  -0.23428
 Alpha virt. eigenvalues --    0.02213   0.02977   0.03065   0.04681   0.04771
 Alpha virt. eigenvalues --    0.05101   0.05204   0.05609   0.05920   0.06042
 Alpha virt. eigenvalues --    0.08558   0.09138   0.09195   0.09219   0.09296

 Mulliken charges:
               1
     1  C   -0.150017
     2  C    0.013638
     3  C   -0.155425
     4  C   -0.149962
     5  C    0.027010
     6  C   -0.155386
     7  H    0.124905
     8  H    0.151147
     9  H    0.126547
    10  C    0.027358
    11  C   -0.155600
    12  C   -0.155141
    13  C   -0.147336
    14  C   -0.150957
    15  C    0.008728
    16  H    0.126247
    17  H    0.126378
    18  H    0.151184
    19  H    0.150262
    20  H    0.150866
    21  N   -0.015067
    22  C   -0.115676
    23  C   -0.061161
    24  C   -0.086247
    25  C   -0.207031
    26  C   -0.180204
    27  C    0.116315
    28  H    0.140776
    29  H    0.149172
    30  H    0.122198
    31  H    0.111423
    32  C   -0.109579
    33  C   -0.084431
    34  C   -0.067949
    35  C   -0.177412
    36  C   -0.203798
    37  C    0.113189
    38  H    0.142399
    39  H    0.147930
    40  H    0.112025
    41  H    0.122337
    42  N   -0.014195
    43  C   -0.118661
    44  C   -0.083494
    45  C   -0.062260
    46  C   -0.178390
    47  C   -0.204922
    48  C    0.113931
    49  H    0.141764
    50  H    0.147603
    51  H    0.112273
    52  H    0.122324
    53  C   -0.117023
    54  C   -0.084220
    55  C   -0.063462
    56  C   -0.178360
    57  C   -0.204834
    58  C    0.113725
    59  H    0.141780
    60  H    0.148140
    61  H    0.112134
    62  H    0.122516
    63  O   -0.243667
    64  H    0.268725
    65  O   -0.243650
    66  H    0.268802
    67  O   -0.243973
    68  H    0.268782
    69  O   -0.243801
    70  H    0.268758
 Sum of Mulliken charges =  -0.00000

 Dipole moment (field-independent basis, Debye):
    X=              1.6927    Y=             -0.4256    Z=              2.0635  Tot=              2.7027
 Quadrupole moment (field-independent basis, Debye-Ang):
   XX=           -191.1047   YY=           -233.0918   ZZ=           -241.4658
   XY=             -5.2751   XZ=            -14.7980   YZ=            -12.1253

 Normal termination of Gaussian 16 at Mon Jan 18 03:44:06 2021.
