 Gaussian 16, Revision A.03,
 Gaussian 16:  EM64L-G16RevA.03 25-Dec-2016

 ----------------------------------------------------------------------
 #P LC-wHPBE/TZVP iop(3/107=0180500000, 3/108=0180500000) scf=(conver=6
 ,fermi,ndamp=35,noincfock,novaracc,vshift=500,xqc)
 ----------------------------------------------------------------------

 -------------
 H28 C36 N2 O4
 -------------
 Symbolic Z-matrix:
 Charge =  1 Multiplicity = 2

                         Standard orientation:
 ---------------------------------------------------------------------
 Center     Atomic      Atomic             Coordinates (Angstroms)
 Number     Number       Type             X           Y           Z
 ---------------------------------------------------------------------
      1          6           0        2.858499   -1.142103    0.374244
      2          6           0        3.579312    0.001087   -0.003359
      3          6           0        1.469111   -1.138314    0.362939
      4          6           0        2.858875    1.143435   -0.384264
      5          6           0        0.739097   -0.000512   -0.009817
      6          6           0        1.469477    1.138129   -0.379362
      7          1           0        0.937192   -2.033473    0.688815
      8          1           0        3.397761    2.037798   -0.696269
      9          1           0        0.938071    2.032504   -0.708142
     10          6           0       -0.742883   -0.001384   -0.012974
     11          6           0       -1.474511    1.130858    0.372988
     12          6           0       -1.471490   -1.134716   -0.402503
     13          6           0       -2.864100    1.134318    0.378218
     14          6           0       -2.860735   -1.140009   -0.413286
     15          6           0       -3.582937   -0.003346   -0.018716
     16          1           0       -0.944110    2.021230    0.714069
     17          1           0       -0.938347   -2.023708   -0.742945
     18          1           0       -3.404263    2.023625    0.702274
     19          1           0       -3.398798   -2.029064   -0.741639
     20          1           0        3.397024   -2.035914    0.688457
     21          7           0       -4.995311   -0.005703   -0.022721
     22          6           0       -5.713915   -1.185510    0.315496
     23          6           0       -6.824749   -1.586223   -0.439679
     24          6           0       -5.336499   -1.964565    1.414395
     25          6           0       -7.543368   -2.726588   -0.103607
     26          6           0       -6.037549   -3.122582    1.739703
     27          6           0       -7.148838   -3.505710    0.986012
     28          1           0       -7.129554   -0.987536   -1.298124
     29          1           0       -4.477812   -1.664402    2.014832
     30          1           0       -8.408278   -3.036049   -0.689802
     31          1           0       -5.724570   -3.720924    2.598980
     32          6           0       -5.717056    1.178925   -0.336296
     33          6           0       -6.821807    1.565845    0.429047
     34          6           0       -5.346761    1.975943   -1.428789
     35          6           0       -7.543924    2.712298    0.107280
     36          6           0       -6.047800    3.134194   -1.738027
     37          6           0       -7.155651    3.506391   -0.973222
     38          1           0       -7.124426    0.956025    1.280239
     39          1           0       -4.491517    1.682511   -2.037555
     40          1           0       -8.407549    2.995534    0.714075
     41          1           0       -5.757368    3.754511   -2.585554
     42          7           0        4.991423    0.001999   -0.000060
     43          6           0        5.710552    1.183762    0.330631
     44          6           0        6.812654    1.584277   -0.431608
     45          6           0        5.340603    1.964026    1.435102
     46          6           0        7.532572    2.727778   -0.095183
     47          6           0        6.039551    3.119564    1.759528
     48          6           0        7.144632    3.505373    0.997606
     49          1           0        7.113605    0.987752   -1.292811
     50          1           0        4.486562    1.660323    2.040543
     51          1           0        8.393358    3.022713   -0.700462
     52          1           0        5.749024    3.727528    2.615933
     53          6           0        5.713955   -1.178690   -0.326778
     54          6           0        6.814458   -1.575861    0.439552
     55          6           0        5.349314   -1.961286   -1.431414
     56          6           0        7.537888   -2.718318    0.107058
     57          6           0        6.051756   -3.115796   -1.751909
     58          6           0        7.155153   -3.498257   -0.985865
     59          1           0        7.111509   -0.977436    1.300789
     60          1           0        4.496830   -1.660119   -2.040298
     61          1           0        8.397429   -3.010471    0.715458
     62          1           0        5.765438   -3.725350   -2.608604
     63          8           0        7.820509   -4.641023   -1.355507
     64          1           0        8.555246   -4.788670   -0.739309
     65          8           0        7.806379    4.648952    1.371018
     66          1           0        8.541702    4.800061    0.756350
     67          8           0       -7.887404   -4.628973    1.265636
     68          1           0       -7.503413   -5.071476    2.038990
     69          8           0       -7.819547    4.653451   -1.332021
     70          1           0       -8.560354    4.790553   -0.720672
 ---------------------------------------------------------------------

 SCF Done:  E(ULC-wHPBE) =  -1797.76883960     A.U. after   24 cycles

 The electronic state is 2-A.
 Alpha  occ. eigenvalues --  -18.97068 -18.97007 -18.96872 -18.96866 -14.25027
 Alpha  occ. eigenvalues --  -14.24649 -10.14414 -10.14356 -10.14269 -10.14195
 Alpha  occ. eigenvalues --  -10.14190 -10.14106 -10.12541 -10.12503 -10.12304
 Alpha  occ. eigenvalues --  -10.12298 -10.10741 -10.10604 -10.09580 -10.09575
 Alpha  occ. eigenvalues --  -10.09541 -10.09538 -10.09469 -10.09455 -10.09375
 Alpha  occ. eigenvalues --  -10.09365 -10.09263 -10.09103 -10.08991 -10.08926
 Alpha  occ. eigenvalues --  -10.08926 -10.08920 -10.08824 -10.08824 -10.08644
 Alpha  occ. eigenvalues --  -10.08545 -10.08407 -10.08400 -10.07963 -10.07953
 Alpha  occ. eigenvalues --  -10.07816 -10.07813  -1.16405  -1.16341  -1.16215
 Alpha  occ. eigenvalues --   -1.16209  -1.10664  -1.10380  -1.00469  -0.98832
 Alpha  occ. eigenvalues --   -0.98472  -0.98270  -0.97073  -0.96429  -0.91901
 Alpha  occ. eigenvalues --   -0.89406  -0.89058  -0.88788  -0.88221  -0.88042
 Alpha  occ. eigenvalues --   -0.87903  -0.87731  -0.87562  -0.87411  -0.84936
 Alpha  occ. eigenvalues --   -0.83262  -0.78826  -0.77965  -0.77190  -0.76885
 Alpha  occ. eigenvalues --   -0.76076  -0.75905  -0.75541  -0.74983  -0.73946
 Alpha  occ. eigenvalues --   -0.73751  -0.72005  -0.71402  -0.69391  -0.68979
 Alpha  occ. eigenvalues --   -0.68805  -0.68718  -0.68310  -0.68147  -0.67355
 Alpha  occ. eigenvalues --   -0.66763  -0.65467  -0.63239  -0.62812  -0.61955
 Alpha  occ. eigenvalues --   -0.61367  -0.61094  -0.59975  -0.59425  -0.59232
 Alpha  occ. eigenvalues --   -0.58612  -0.58591  -0.58545  -0.58266  -0.57549
 Alpha  occ. eigenvalues --   -0.57036  -0.56957  -0.56728  -0.56641  -0.56574
 Alpha  occ. eigenvalues --   -0.56447  -0.55989  -0.55631  -0.55505  -0.55481
 Alpha  occ. eigenvalues --   -0.55354  -0.54870  -0.54627  -0.54416  -0.54069
 Alpha  occ. eigenvalues --   -0.53659  -0.52724  -0.52232  -0.51722  -0.51454
 Alpha  occ. eigenvalues --   -0.50585  -0.50355  -0.50348  -0.50104  -0.49521
 Alpha  occ. eigenvalues --   -0.49340  -0.49110  -0.48425  -0.48210  -0.48168
 Alpha  occ. eigenvalues --   -0.48121  -0.46849  -0.45069  -0.42542  -0.42385
 Alpha  occ. eigenvalues --   -0.42050  -0.41510  -0.41317  -0.41184  -0.40922
 Alpha  occ. eigenvalues --   -0.39353  -0.38556  -0.38409  -0.34497  -0.33370
 Alpha virt. eigenvalues --   -0.09388  -0.07684  -0.07447  -0.05686  -0.05569
 Alpha virt. eigenvalues --   -0.05513  -0.05244  -0.05215  -0.05045  -0.04905
 Alpha virt. eigenvalues --   -0.02260  -0.00997   0.00850   0.01042   0.01058

  Beta  occ. eigenvalues --  -18.97025 -18.96963 -18.96832 -18.96826 -14.24617
  Beta  occ. eigenvalues --  -14.24266 -10.14351 -10.14292 -10.14242 -10.14137
  Beta  occ. eigenvalues --  -10.14133 -10.14076 -10.12563 -10.12526 -10.12326
  Beta  occ. eigenvalues --  -10.12320 -10.10654 -10.10524 -10.09563 -10.09559
  Beta  occ. eigenvalues --  -10.09501 -10.09494 -10.09461 -10.09447 -10.09326
  Beta  occ. eigenvalues --  -10.09316 -10.09201 -10.09043 -10.08934 -10.08872
  Beta  occ. eigenvalues --  -10.08871 -10.08865 -10.08772 -10.08771 -10.08663
  Beta  occ. eigenvalues --  -10.08560 -10.08421 -10.08414 -10.07980 -10.07973
  Beta  occ. eigenvalues --  -10.07834 -10.07832  -1.16325  -1.16261  -1.16142
  Beta  occ. eigenvalues --   -1.16136  -1.10162  -1.09912  -1.00305  -0.98690
  Beta  occ. eigenvalues --   -0.98385  -0.98191  -0.96947  -0.96281  -0.91697
  Beta  occ. eigenvalues --   -0.89329  -0.88977  -0.88683  -0.88152  -0.87983
  Beta  occ. eigenvalues --   -0.87845  -0.87666  -0.87489  -0.87309  -0.84753
  Beta  occ. eigenvalues --   -0.82979  -0.78744  -0.77849  -0.77087  -0.76779
  Beta  occ. eigenvalues --   -0.75988  -0.75798  -0.75457  -0.74891  -0.73842
  Beta  occ. eigenvalues --   -0.73638  -0.71923  -0.71323  -0.69317  -0.68903
  Beta  occ. eigenvalues --   -0.68750  -0.68667  -0.68260  -0.68072  -0.67260
  Beta  occ. eigenvalues --   -0.66651  -0.65370  -0.63006  -0.62612  -0.61892
  Beta  occ. eigenvalues --   -0.61312  -0.61040  -0.59823  -0.59328  -0.59155
  Beta  occ. eigenvalues --   -0.58546  -0.58538  -0.58477  -0.58220  -0.57502
  Beta  occ. eigenvalues --   -0.56978  -0.56897  -0.56678  -0.56602  -0.56528
  Beta  occ. eigenvalues --   -0.56399  -0.55907  -0.55464  -0.55315  -0.55285
  Beta  occ. eigenvalues --   -0.55188  -0.54745  -0.54464  -0.54200  -0.53883
  Beta  occ. eigenvalues --   -0.53414  -0.52472  -0.52067  -0.51661  -0.51395
  Beta  occ. eigenvalues --   -0.50335  -0.50252  -0.50223  -0.49834  -0.49256
  Beta  occ. eigenvalues --   -0.49096  -0.48922  -0.48362  -0.48168  -0.48105
  Beta  occ. eigenvalues --   -0.48085  -0.46476  -0.44126  -0.42405  -0.42255
  Beta  occ. eigenvalues --   -0.41402  -0.41244  -0.41204  -0.41026  -0.40495
  Beta  occ. eigenvalues --   -0.38008  -0.37946  -0.37889  -0.30611
  Beta virt. eigenvalues --   -0.22226  -0.09052  -0.07440  -0.07201  -0.05412
  Beta virt. eigenvalues --   -0.05278  -0.05236  -0.04923  -0.04827  -0.04759
  Beta virt. eigenvalues --   -0.04606  -0.01713  -0.00372   0.00869   0.01059

 Mulliken charges and spin densities:
               1          2
     1  C   -0.136009   0.030120
     2  C    0.015188   0.035241
     3  C   -0.135785  -0.002265
     4  C   -0.135907   0.030049
     5  C    0.032321   0.055967
     6  C   -0.135742  -0.002376
     7  H    0.143855  -0.000249
     8  H    0.170587  -0.001330
     9  H    0.145404  -0.000255
    10  C    0.030940   0.061280
    11  C   -0.135917  -0.004819
    12  C   -0.135645  -0.006006
    13  C   -0.132463   0.033395
    14  C   -0.136353   0.034049
    15  C    0.009693   0.033837
    16  H    0.146135  -0.000124
    17  H    0.146298  -0.000073
    18  H    0.170887  -0.001488
    19  H    0.170259  -0.001493
    20  H    0.170333  -0.001334
    21  N    0.040812   0.181346
    22  C   -0.123936  -0.006259
    23  C   -0.048287   0.037111
    24  C   -0.077881   0.040186
    25  C   -0.195129  -0.017292
    26  C   -0.164631  -0.020014
    27  C    0.124397   0.045804
    28  H    0.154117  -0.001586
    29  H    0.154762  -0.002034
    30  H    0.145751   0.000851
    31  H    0.131011   0.001009
    32  C   -0.117574  -0.005891
    33  C   -0.069838   0.041381
    34  C   -0.060776   0.036599
    35  C   -0.161018  -0.016959
    36  C   -0.192588  -0.020421
    37  C    0.121545   0.046301
    38  H    0.155336  -0.001850
    39  H    0.154212  -0.001814
    40  H    0.134474   0.000766
    41  H    0.143236   0.001077
    42  N    0.038743   0.169933
    43  C   -0.126399  -0.006225
    44  C   -0.069842   0.038289
    45  C   -0.055899   0.033747
    46  C   -0.162761  -0.015859
    47  C   -0.194150  -0.018766
    48  C    0.121722   0.042322
    49  H    0.154037  -0.001701
    50  H    0.152367  -0.001688
    51  H    0.133633   0.000717
    52  H    0.141899   0.001009
    53  C   -0.124739  -0.006278
    54  C   -0.070514   0.038411
    55  C   -0.057077   0.033847
    56  C   -0.162727  -0.015907
    57  C   -0.194065  -0.018841
    58  C    0.121537   0.042446
    59  H    0.154052  -0.001706
    60  H    0.152928  -0.001692
    61  H    0.133513   0.000719
    62  H    0.142110   0.001011
    63  O   -0.217438   0.013677
    64  H    0.280421  -0.000337
    65  O   -0.217442   0.013650
    66  H    0.280490  -0.000336
    67  O   -0.215286   0.014794
    68  H    0.279951  -0.000365
    69  O   -0.216127   0.015066
    70  H    0.280991  -0.000373
 Sum of Mulliken charges =   1.00000   1.00000

 Dipole moment (field-independent basis, Debye):
    X=              1.0494    Y=             -0.4188    Z=              2.0838  Tot=              2.3704
 Quadrupole moment (field-independent basis, Debye-Ang):
   XX=            -17.7636   YY=           -191.9776   ZZ=           -231.1653
   XY=             -5.4449   XZ=            -14.9555   YZ=            -12.4824

 Normal termination of Gaussian 16 at Mon Jan 18 09:38:45 2021.
