 Gaussian 16, Revision A.03,
 Gaussian 16:  EM64L-G16RevA.03 25-Dec-2016

 ----------------------------------------------------------------------
 #P LC-wHPBE/TZVP iop(3/107=0182700000, 3/108=0182700000) scf=(conver=6
 ,fermi,ndamp=35,noincfock,novaracc,vshift=500,xqc)
 ----------------------------------------------------------------------

 -------------
 H28 C36 N2 O4
 -------------
 Symbolic Z-matrix:
 Charge =  1 Multiplicity = 2

                         Standard orientation:
 ---------------------------------------------------------------------
 Center     Atomic      Atomic             Coordinates (Angstroms)
 Number     Number       Type             X           Y           Z
 ---------------------------------------------------------------------
      1          6           0        2.858499   -1.142103    0.374244
      2          6           0        3.579312    0.001087   -0.003359
      3          6           0        1.469111   -1.138314    0.362939
      4          6           0        2.858875    1.143435   -0.384264
      5          6           0        0.739097   -0.000512   -0.009817
      6          6           0        1.469477    1.138129   -0.379362
      7          1           0        0.937192   -2.033473    0.688815
      8          1           0        3.397761    2.037798   -0.696269
      9          1           0        0.938071    2.032504   -0.708142
     10          6           0       -0.742883   -0.001384   -0.012974
     11          6           0       -1.474511    1.130858    0.372988
     12          6           0       -1.471490   -1.134716   -0.402503
     13          6           0       -2.864100    1.134318    0.378218
     14          6           0       -2.860735   -1.140009   -0.413286
     15          6           0       -3.582937   -0.003346   -0.018716
     16          1           0       -0.944110    2.021230    0.714069
     17          1           0       -0.938347   -2.023708   -0.742945
     18          1           0       -3.404263    2.023625    0.702274
     19          1           0       -3.398798   -2.029064   -0.741639
     20          1           0        3.397024   -2.035914    0.688457
     21          7           0       -4.995311   -0.005703   -0.022721
     22          6           0       -5.713915   -1.185510    0.315496
     23          6           0       -6.824749   -1.586223   -0.439679
     24          6           0       -5.336499   -1.964565    1.414395
     25          6           0       -7.543368   -2.726588   -0.103607
     26          6           0       -6.037549   -3.122582    1.739703
     27          6           0       -7.148838   -3.505710    0.986012
     28          1           0       -7.129554   -0.987536   -1.298124
     29          1           0       -4.477812   -1.664402    2.014832
     30          1           0       -8.408278   -3.036049   -0.689802
     31          1           0       -5.724570   -3.720924    2.598980
     32          6           0       -5.717056    1.178925   -0.336296
     33          6           0       -6.821807    1.565845    0.429047
     34          6           0       -5.346761    1.975943   -1.428789
     35          6           0       -7.543924    2.712298    0.107280
     36          6           0       -6.047800    3.134194   -1.738027
     37          6           0       -7.155651    3.506391   -0.973222
     38          1           0       -7.124426    0.956025    1.280239
     39          1           0       -4.491517    1.682511   -2.037555
     40          1           0       -8.407549    2.995534    0.714075
     41          1           0       -5.757368    3.754511   -2.585554
     42          7           0        4.991423    0.001999   -0.000060
     43          6           0        5.710552    1.183762    0.330631
     44          6           0        6.812654    1.584277   -0.431608
     45          6           0        5.340603    1.964026    1.435102
     46          6           0        7.532572    2.727778   -0.095183
     47          6           0        6.039551    3.119564    1.759528
     48          6           0        7.144632    3.505373    0.997606
     49          1           0        7.113605    0.987752   -1.292811
     50          1           0        4.486562    1.660323    2.040543
     51          1           0        8.393358    3.022713   -0.700462
     52          1           0        5.749024    3.727528    2.615933
     53          6           0        5.713955   -1.178690   -0.326778
     54          6           0        6.814458   -1.575861    0.439552
     55          6           0        5.349314   -1.961286   -1.431414
     56          6           0        7.537888   -2.718318    0.107058
     57          6           0        6.051756   -3.115796   -1.751909
     58          6           0        7.155153   -3.498257   -0.985865
     59          1           0        7.111509   -0.977436    1.300789
     60          1           0        4.496830   -1.660119   -2.040298
     61          1           0        8.397429   -3.010471    0.715458
     62          1           0        5.765438   -3.725350   -2.608604
     63          8           0        7.820509   -4.641023   -1.355507
     64          1           0        8.555246   -4.788670   -0.739309
     65          8           0        7.806379    4.648952    1.371018
     66          1           0        8.541702    4.800061    0.756350
     67          8           0       -7.887404   -4.628973    1.265636
     68          1           0       -7.503413   -5.071476    2.038990
     69          8           0       -7.819547    4.653451   -1.332021
     70          1           0       -8.560354    4.790553   -0.720672
 ---------------------------------------------------------------------

 SCF Done:  E(ULC-wHPBE) =  -1797.77347495     A.U. after   24 cycles

 The electronic state is 2-A.
 Alpha  occ. eigenvalues --  -18.97184 -18.97123 -18.96984 -18.96977 -14.25160
 Alpha  occ. eigenvalues --  -14.24772 -10.14542 -10.14484 -10.14408 -10.14318
 Alpha  occ. eigenvalues --  -10.14314 -10.14242 -10.12669 -10.12631 -10.12427
 Alpha  occ. eigenvalues --  -10.12421 -10.10879 -10.10739 -10.09715 -10.09711
 Alpha  occ. eigenvalues --  -10.09676 -10.09673 -10.09602 -10.09588 -10.09505
 Alpha  occ. eigenvalues --  -10.09496 -10.09392 -10.09231 -10.09120 -10.09054
 Alpha  occ. eigenvalues --  -10.09049 -10.09043 -10.08948 -10.08947 -10.08770
 Alpha  occ. eigenvalues --  -10.08671 -10.08528 -10.08521 -10.08089 -10.08078
 Alpha  occ. eigenvalues --  -10.07936 -10.07934  -1.16528  -1.16465  -1.16334
 Alpha  occ. eigenvalues --   -1.16329  -1.10803  -1.10512  -1.00611  -0.98970
 Alpha  occ. eigenvalues --   -0.98606  -0.98399  -0.97206  -0.96561  -0.92036
 Alpha  occ. eigenvalues --   -0.89540  -0.89187  -0.88918  -0.88351  -0.88170
 Alpha  occ. eigenvalues --   -0.88031  -0.87858  -0.87688  -0.87539  -0.85060
 Alpha  occ. eigenvalues --   -0.83386  -0.78946  -0.78087  -0.77308  -0.77003
 Alpha  occ. eigenvalues --   -0.76193  -0.76022  -0.75659  -0.75100  -0.74063
 Alpha  occ. eigenvalues --   -0.73871  -0.72120  -0.71517  -0.69507  -0.69090
 Alpha  occ. eigenvalues --   -0.68916  -0.68827  -0.68417  -0.68256  -0.67462
 Alpha  occ. eigenvalues --   -0.66866  -0.65579  -0.63351  -0.62917  -0.62064
 Alpha  occ. eigenvalues --   -0.61474  -0.61197  -0.60085  -0.59533  -0.59340
 Alpha  occ. eigenvalues --   -0.58714  -0.58694  -0.58649  -0.58365  -0.57657
 Alpha  occ. eigenvalues --   -0.57142  -0.57058  -0.56828  -0.56743  -0.56673
 Alpha  occ. eigenvalues --   -0.56547  -0.56087  -0.55737  -0.55614  -0.55586
 Alpha  occ. eigenvalues --   -0.55458  -0.54971  -0.54732  -0.54516  -0.54173
 Alpha  occ. eigenvalues --   -0.53760  -0.52823  -0.52329  -0.51817  -0.51547
 Alpha  occ. eigenvalues --   -0.50683  -0.50451  -0.50446  -0.50201  -0.49621
 Alpha  occ. eigenvalues --   -0.49435  -0.49207  -0.48518  -0.48301  -0.48256
 Alpha  occ. eigenvalues --   -0.48208  -0.46944  -0.45163  -0.42625  -0.42465
 Alpha  occ. eigenvalues --   -0.42134  -0.41589  -0.41392  -0.41261  -0.40996
 Alpha  occ. eigenvalues --   -0.39427  -0.38629  -0.38478  -0.34563  -0.33435
 Alpha virt. eigenvalues --   -0.09345  -0.07632  -0.07393  -0.05632  -0.05513
 Alpha virt. eigenvalues --   -0.05453  -0.05189  -0.05157  -0.04986  -0.04842
 Alpha virt. eigenvalues --   -0.02200  -0.00936   0.00911   0.01106   0.01121

  Beta  occ. eigenvalues --  -18.97141 -18.97080 -18.96944 -18.96938 -14.24748
  Beta  occ. eigenvalues --  -14.24388 -10.14480 -10.14421 -10.14381 -10.14260
  Beta  occ. eigenvalues --  -10.14256 -10.14211 -10.12692 -10.12654 -10.12449
  Beta  occ. eigenvalues --  -10.12443 -10.10791 -10.10658 -10.09698 -10.09695
  Beta  occ. eigenvalues --  -10.09636 -10.09628 -10.09594 -10.09580 -10.09456
  Beta  occ. eigenvalues --  -10.09447 -10.09330 -10.09172 -10.09063 -10.09000
  Beta  occ. eigenvalues --  -10.08994 -10.08988 -10.08895 -10.08894 -10.08789
  Beta  occ. eigenvalues --  -10.08685 -10.08542 -10.08535 -10.08105 -10.08098
  Beta  occ. eigenvalues --  -10.07955 -10.07952  -1.16449  -1.16385  -1.16261
  Beta  occ. eigenvalues --   -1.16256  -1.10300  -1.10044  -1.00446  -0.98828
  Beta  occ. eigenvalues --   -0.98519  -0.98320  -0.97080  -0.96412  -0.91831
  Beta  occ. eigenvalues --   -0.89463  -0.89107  -0.88812  -0.88282  -0.88111
  Beta  occ. eigenvalues --   -0.87972  -0.87793  -0.87616  -0.87436  -0.84876
  Beta  occ. eigenvalues --   -0.83101  -0.78864  -0.77971  -0.77205  -0.76897
  Beta  occ. eigenvalues --   -0.76104  -0.75915  -0.75575  -0.75009  -0.73959
  Beta  occ. eigenvalues --   -0.73757  -0.72037  -0.71437  -0.69432  -0.69014
  Beta  occ. eigenvalues --   -0.68861  -0.68775  -0.68366  -0.68182  -0.67367
  Beta  occ. eigenvalues --   -0.66754  -0.65482  -0.63117  -0.62717  -0.62000
  Beta  occ. eigenvalues --   -0.61419  -0.61143  -0.59932  -0.59436  -0.59263
  Beta  occ. eigenvalues --   -0.58649  -0.58639  -0.58581  -0.58319  -0.57610
  Beta  occ. eigenvalues --   -0.57085  -0.56997  -0.56777  -0.56703  -0.56626
  Beta  occ. eigenvalues --   -0.56498  -0.56004  -0.55571  -0.55424  -0.55389
  Beta  occ. eigenvalues --   -0.55293  -0.54845  -0.54566  -0.54297  -0.53988
  Beta  occ. eigenvalues --   -0.53516  -0.52568  -0.52162  -0.51756  -0.51488
  Beta  occ. eigenvalues --   -0.50432  -0.50349  -0.50320  -0.49931  -0.49354
  Beta  occ. eigenvalues --   -0.49190  -0.49018  -0.48454  -0.48259  -0.48193
  Beta  occ. eigenvalues --   -0.48172  -0.46567  -0.44208  -0.42489  -0.42336
  Beta  occ. eigenvalues --   -0.41481  -0.41319  -0.41279  -0.41101  -0.40565
  Beta  occ. eigenvalues --   -0.38074  -0.38005  -0.37955  -0.30646
  Beta virt. eigenvalues --   -0.22231  -0.09012  -0.07386  -0.07145  -0.05356
  Beta virt. eigenvalues --   -0.05218  -0.05178  -0.04864  -0.04767  -0.04697
  Beta virt. eigenvalues --   -0.04546  -0.01648  -0.00303   0.00930   0.01122

 Mulliken charges and spin densities:
               1          2
     1  C   -0.136071   0.030009
     2  C    0.015068   0.035537
     3  C   -0.135965  -0.002239
     4  C   -0.135970   0.029937
     5  C    0.032237   0.056044
     6  C   -0.135921  -0.002351
     7  H    0.144108  -0.000254
     8  H    0.170900  -0.001327
     9  H    0.145658  -0.000261
    10  C    0.030823   0.061548
    11  C   -0.136099  -0.004906
    12  C   -0.135829  -0.006097
    13  C   -0.132504   0.033407
    14  C   -0.136385   0.034068
    15  C    0.009557   0.034064
    16  H    0.146409  -0.000125
    17  H    0.146573  -0.000073
    18  H    0.171210  -0.001490
    19  H    0.170583  -0.001495
    20  H    0.170647  -0.001330
    21  N    0.040385   0.181891
    22  C   -0.124087  -0.006551
    23  C   -0.048288   0.037299
    24  C   -0.077911   0.040365
    25  C   -0.195396  -0.017523
    26  C   -0.164933  -0.020269
    27  C    0.124347   0.045966
    28  H    0.154387  -0.001593
    29  H    0.155013  -0.002043
    30  H    0.145953   0.000860
    31  H    0.131208   0.001020
    32  C   -0.117717  -0.006185
    33  C   -0.069894   0.041577
    34  C   -0.060759   0.036776
    35  C   -0.161309  -0.017197
    36  C   -0.192862  -0.020676
    37  C    0.121495   0.046464
    38  H    0.155600  -0.001857
    39  H    0.154470  -0.001823
    40  H    0.134673   0.000775
    41  H    0.143435   0.001088
    42  N    0.038241   0.170208
    43  C   -0.126530  -0.006494
    44  C   -0.069904   0.038420
    45  C   -0.055892   0.033862
    46  C   -0.163063  -0.016054
    47  C   -0.194434  -0.018976
    48  C    0.121663   0.042413
    49  H    0.154285  -0.001706
    50  H    0.152600  -0.001695
    51  H    0.133815   0.000725
    52  H    0.142076   0.001018
    53  C   -0.124870  -0.006548
    54  C   -0.070577   0.038542
    55  C   -0.057071   0.033962
    56  C   -0.163029  -0.016102
    57  C   -0.194348  -0.019052
    58  C    0.121477   0.042538
    59  H    0.154301  -0.001711
    60  H    0.153160  -0.001699
    61  H    0.133695   0.000727
    62  H    0.142287   0.001020
    63  O   -0.217512   0.013617
    64  H    0.280411  -0.000335
    65  O   -0.217517   0.013590
    66  H    0.280480  -0.000335
    67  O   -0.215336   0.014751
    68  H    0.279948  -0.000364
    69  O   -0.216182   0.015020
    70  H    0.280989  -0.000372
 Sum of Mulliken charges =   1.00000   1.00000

 Dipole moment (field-independent basis, Debye):
    X=              1.0381    Y=             -0.4191    Z=              2.0844  Tot=              2.3660
 Quadrupole moment (field-independent basis, Debye-Ang):
   XX=            -17.9207   YY=           -192.0342   ZZ=           -231.1566
   XY=             -5.4458   XZ=            -14.9606   YZ=            -12.4904

 Normal termination of Gaussian 16 at Mon Jan 18 10:33:27 2021.
