 Gaussian 16, Revision A.03,
 Gaussian 16:  EM64L-G16RevA.03 25-Dec-2016

 ----------------------------------------------------------------------
 #P LC-wHPBE/TZVP iop(3/107=0328100000, 3/108=0328100000) scf=(conver=6
 ,fermi,ndamp=35,noincfock,novaracc,vshift=500,xqc)
 ----------------------------------------------------------------------

 -------------
 H28 C36 N2 O4
 -------------
 Symbolic Z-matrix:
 Charge =  1 Multiplicity = 2

                         Standard orientation:
 ---------------------------------------------------------------------
 Center     Atomic      Atomic             Coordinates (Angstroms)
 Number     Number       Type             X           Y           Z
 ---------------------------------------------------------------------
      1          6           0        2.858499   -1.142103    0.374244
      2          6           0        3.579312    0.001087   -0.003359
      3          6           0        1.469111   -1.138314    0.362939
      4          6           0        2.858875    1.143435   -0.384264
      5          6           0        0.739097   -0.000512   -0.009817
      6          6           0        1.469477    1.138129   -0.379362
      7          1           0        0.937192   -2.033473    0.688815
      8          1           0        3.397761    2.037798   -0.696269
      9          1           0        0.938071    2.032504   -0.708142
     10          6           0       -0.742883   -0.001384   -0.012974
     11          6           0       -1.474511    1.130858    0.372988
     12          6           0       -1.471490   -1.134716   -0.402503
     13          6           0       -2.864100    1.134318    0.378218
     14          6           0       -2.860735   -1.140009   -0.413286
     15          6           0       -3.582937   -0.003346   -0.018716
     16          1           0       -0.944110    2.021230    0.714069
     17          1           0       -0.938347   -2.023708   -0.742945
     18          1           0       -3.404263    2.023625    0.702274
     19          1           0       -3.398798   -2.029064   -0.741639
     20          1           0        3.397024   -2.035914    0.688457
     21          7           0       -4.995311   -0.005703   -0.022721
     22          6           0       -5.713915   -1.185510    0.315496
     23          6           0       -6.824749   -1.586223   -0.439679
     24          6           0       -5.336499   -1.964565    1.414395
     25          6           0       -7.543368   -2.726588   -0.103607
     26          6           0       -6.037549   -3.122582    1.739703
     27          6           0       -7.148838   -3.505710    0.986012
     28          1           0       -7.129554   -0.987536   -1.298124
     29          1           0       -4.477812   -1.664402    2.014832
     30          1           0       -8.408278   -3.036049   -0.689802
     31          1           0       -5.724570   -3.720924    2.598980
     32          6           0       -5.717056    1.178925   -0.336296
     33          6           0       -6.821807    1.565845    0.429047
     34          6           0       -5.346761    1.975943   -1.428789
     35          6           0       -7.543924    2.712298    0.107280
     36          6           0       -6.047800    3.134194   -1.738027
     37          6           0       -7.155651    3.506391   -0.973222
     38          1           0       -7.124426    0.956025    1.280239
     39          1           0       -4.491517    1.682511   -2.037555
     40          1           0       -8.407549    2.995534    0.714075
     41          1           0       -5.757368    3.754511   -2.585554
     42          7           0        4.991423    0.001999   -0.000060
     43          6           0        5.710552    1.183762    0.330631
     44          6           0        6.812654    1.584277   -0.431608
     45          6           0        5.340603    1.964026    1.435102
     46          6           0        7.532572    2.727778   -0.095183
     47          6           0        6.039551    3.119564    1.759528
     48          6           0        7.144632    3.505373    0.997606
     49          1           0        7.113605    0.987752   -1.292811
     50          1           0        4.486562    1.660323    2.040543
     51          1           0        8.393358    3.022713   -0.700462
     52          1           0        5.749024    3.727528    2.615933
     53          6           0        5.713955   -1.178690   -0.326778
     54          6           0        6.814458   -1.575861    0.439552
     55          6           0        5.349314   -1.961286   -1.431414
     56          6           0        7.537888   -2.718318    0.107058
     57          6           0        6.051756   -3.115796   -1.751909
     58          6           0        7.155153   -3.498257   -0.985865
     59          1           0        7.111509   -0.977436    1.300789
     60          1           0        4.496830   -1.660119   -2.040298
     61          1           0        8.397429   -3.010471    0.715458
     62          1           0        5.765438   -3.725350   -2.608604
     63          8           0        7.820509   -4.641023   -1.355507
     64          1           0        8.555246   -4.788670   -0.739309
     65          8           0        7.806379    4.648952    1.371018
     66          1           0        8.541702    4.800061    0.756350
     67          8           0       -7.887404   -4.628973    1.265636
     68          1           0       -7.503413   -5.071476    2.038990
     69          8           0       -7.819547    4.653451   -1.332021
     70          1           0       -8.560354    4.790553   -0.720672
 ---------------------------------------------------------------------

 SCF Done:  E(ULC-wHPBE) =  -1798.02997965     A.U. after   33 cycles
 SCF Done:  E(ULC-wHPBE) =  -1798.03223787     a.u. after    5 cycles

 The electronic state is 2-A.
 Alpha  occ. eigenvalues --  -19.07467 -19.07421 -19.01765 -19.01760 -14.39293
 Alpha  occ. eigenvalues --  -14.27454 -10.26284 -10.26241 -10.25241 -10.24511
 Alpha  occ. eigenvalues --  -10.24486 -10.21174 -10.21093 -10.21054 -10.20837
 Alpha  occ. eigenvalues --  -10.20835 -10.20592 -10.20585 -10.20305 -10.19872
 Alpha  occ. eigenvalues --  -10.19829 -10.19652 -10.19650 -10.19275 -10.19272
 Alpha  occ. eigenvalues --  -10.19196 -10.19145 -10.17504 -10.17498 -10.17225
 Alpha  occ. eigenvalues --  -10.16548 -10.16533 -10.15317 -10.15307 -10.14156
 Alpha  occ. eigenvalues --  -10.14152 -10.14145 -10.14144 -10.13899 -10.13893
 Alpha  occ. eigenvalues --  -10.13351 -10.13350  -1.27238  -1.27191  -1.23916
 Alpha  occ. eigenvalues --   -1.21608  -1.21604  -1.15031  -1.10816  -1.10439
 Alpha  occ. eigenvalues --   -1.08604  -1.06016  -1.03788  -1.02541  -1.00844
 Alpha  occ. eigenvalues --   -1.00291  -0.99161  -0.99060  -0.98357  -0.96335
 Alpha  occ. eigenvalues --   -0.94981  -0.93877  -0.93167  -0.92800  -0.92561
 Alpha  occ. eigenvalues --   -0.89238  -0.87781  -0.87206  -0.85990  -0.85105
 Alpha  occ. eigenvalues --   -0.84313  -0.82164  -0.81345  -0.80905  -0.80088
 Alpha  occ. eigenvalues --   -0.78987  -0.78838  -0.78413  -0.78165  -0.77291
 Alpha  occ. eigenvalues --   -0.76337  -0.75701  -0.73457  -0.72704  -0.72245
 Alpha  occ. eigenvalues --   -0.71707  -0.71294  -0.70319  -0.70054  -0.68969
 Alpha  occ. eigenvalues --   -0.67358  -0.67310  -0.66887  -0.65910  -0.65719
 Alpha  occ. eigenvalues --   -0.65467  -0.65301  -0.64985  -0.64642  -0.64481
 Alpha  occ. eigenvalues --   -0.64290  -0.64078  -0.63512  -0.62912  -0.62231
 Alpha  occ. eigenvalues --   -0.61653  -0.61444  -0.61210  -0.60785  -0.60509
 Alpha  occ. eigenvalues --   -0.59753  -0.59444  -0.59310  -0.59125  -0.58714
 Alpha  occ. eigenvalues --   -0.58560  -0.58256  -0.58063  -0.57779  -0.56736
 Alpha  occ. eigenvalues --   -0.56697  -0.56239  -0.56128  -0.55377  -0.54703
 Alpha  occ. eigenvalues --   -0.54265  -0.53662  -0.52560  -0.52286  -0.51729
 Alpha  occ. eigenvalues --   -0.50377  -0.50282  -0.49237  -0.48833  -0.47856
 Alpha  occ. eigenvalues --   -0.47584  -0.46138  -0.45192  -0.44036  -0.42284
 Alpha  occ. eigenvalues --   -0.42234  -0.41561  -0.40149  -0.39051  -0.33353
 Alpha virt. eigenvalues --   -0.08215  -0.07789  -0.06518  -0.05515  -0.05195
 Alpha virt. eigenvalues --   -0.03345  -0.02975  -0.00666  -0.00326  -0.00051
 Alpha virt. eigenvalues --    0.00534   0.01493   0.01779   0.02162   0.03448

  Beta  occ. eigenvalues --  -19.07387 -19.07340 -19.01760 -19.01755 -14.38427
  Beta  occ. eigenvalues --  -14.27382 -10.26133 -10.26088 -10.25314 -10.24595
  Beta  occ. eigenvalues --  -10.24570 -10.21026 -10.20948 -10.20814 -10.20702
  Beta  occ. eigenvalues --  -10.20699 -10.20412 -10.20405 -10.20240 -10.19945
  Beta  occ. eigenvalues --  -10.19898 -10.19639 -10.19637 -10.19378 -10.19375
  Beta  occ. eigenvalues --  -10.19268 -10.19222 -10.17515 -10.17509 -10.17262
  Beta  occ. eigenvalues --  -10.16489 -10.16474 -10.15347 -10.15337 -10.14143
  Beta  occ. eigenvalues --  -10.14140 -10.14132 -10.14131 -10.13905 -10.13899
  Beta  occ. eigenvalues --  -10.13359 -10.13358  -1.27077  -1.27028  -1.22833
  Beta  occ. eigenvalues --   -1.21597  -1.21593  -1.14932  -1.10568  -1.10252
  Beta  occ. eigenvalues --   -1.08301  -1.05874  -1.03778  -1.02453  -1.00644
  Beta  occ. eigenvalues --   -1.00122  -0.99033  -0.98949  -0.98226  -0.96053
  Beta  occ. eigenvalues --   -0.94949  -0.93574  -0.93152  -0.92658  -0.92549
  Beta  occ. eigenvalues --   -0.89173  -0.87585  -0.86990  -0.85724  -0.84944
  Beta  occ. eigenvalues --   -0.84152  -0.82076  -0.81271  -0.80790  -0.80074
  Beta  occ. eigenvalues --   -0.78942  -0.78782  -0.78293  -0.78026  -0.77114
  Beta  occ. eigenvalues --   -0.76156  -0.75677  -0.73357  -0.72275  -0.72002
  Beta  occ. eigenvalues --   -0.71689  -0.71172  -0.70213  -0.69989  -0.68812
  Beta  occ. eigenvalues --   -0.67241  -0.67163  -0.66751  -0.65805  -0.65522
  Beta  occ. eigenvalues --   -0.65249  -0.65160  -0.64796  -0.64390  -0.64250
  Beta  occ. eigenvalues --   -0.63977  -0.63915  -0.63337  -0.62680  -0.61693
  Beta  occ. eigenvalues --   -0.61546  -0.61355  -0.60983  -0.60537  -0.60182
  Beta  occ. eigenvalues --   -0.59630  -0.59428  -0.59297  -0.58689  -0.58602
  Beta  occ. eigenvalues --   -0.58443  -0.58231  -0.57476  -0.57187  -0.56569
  Beta  occ. eigenvalues --   -0.56450  -0.56148  -0.56037  -0.55317  -0.54657
  Beta  occ. eigenvalues --   -0.53641  -0.53146  -0.52292  -0.51676  -0.51347
  Beta  occ. eigenvalues --   -0.50362  -0.50277  -0.48551  -0.47925  -0.47593
  Beta  occ. eigenvalues --   -0.47382  -0.44567  -0.43997  -0.43777  -0.42202
  Beta  occ. eigenvalues --   -0.41873  -0.40397  -0.38979  -0.32959
  Beta virt. eigenvalues --   -0.21743  -0.07581  -0.07386  -0.05806  -0.04864
  Beta virt. eigenvalues --   -0.04336  -0.02759  -0.02389  -0.00231   0.00015
  Beta virt. eigenvalues --    0.00384   0.00602   0.01539   0.01794   0.02216

 Mulliken charges and spin densities:
               1          2
     1  C   -0.159959  -0.032611
     2  C    0.000880   0.058138
     3  C   -0.150205   0.048483
     4  C   -0.159847  -0.032646
     5  C    0.035091  -0.043553
     6  C   -0.150115   0.048442
     7  H    0.153462  -0.002403
     8  H    0.191204   0.001244
     9  H    0.155055  -0.002410
    10  C    0.002385   0.195583
    11  C   -0.154443  -0.104759
    12  C   -0.154270  -0.106006
    13  C   -0.126552   0.135309
    14  C   -0.130446   0.136477
    15  C   -0.021290  -0.034458
    16  H    0.181325   0.004027
    17  H    0.181521   0.004069
    18  H    0.201568  -0.005631
    19  H    0.201316  -0.005632
    20  H    0.190950   0.001243
    21  N    0.062130   0.381840
    22  C   -0.153606  -0.045769
    23  C   -0.050404   0.097931
    24  C   -0.080022   0.106059
    25  C   -0.203990  -0.070969
    26  C   -0.174609  -0.074705
    27  C    0.126526   0.117410
    28  H    0.188901  -0.003933
    29  H    0.196016  -0.004641
    30  H    0.178937   0.003164
    31  H    0.164175   0.003281
    32  C   -0.146924  -0.045502
    33  C   -0.073174   0.107639
    34  C   -0.061099   0.098484
    35  C   -0.170970  -0.071469
    36  C   -0.201618  -0.075427
    37  C    0.123803   0.118927
    38  H    0.189624  -0.004537
    39  H    0.195696  -0.004189
    40  H    0.165861   0.003089
    41  H    0.178133   0.003374
    42  N   -0.042289   0.027838
    43  C   -0.131066  -0.005679
    44  C   -0.093237   0.010314
    45  C   -0.075029   0.008609
    46  C   -0.182284  -0.006538
    47  C   -0.210104  -0.007449
    48  C    0.107446   0.009757
    49  H    0.170415  -0.000447
    50  H    0.163032  -0.000616
    51  H    0.142398   0.000267
    52  H    0.149805   0.000364
    53  C   -0.129456  -0.005698
    54  C   -0.093977   0.010347
    55  C   -0.076171   0.008635
    56  C   -0.182263  -0.006559
    57  C   -0.210030  -0.007473
    58  C    0.107247   0.009787
    59  H    0.170439  -0.000447
    60  H    0.163604  -0.000618
    61  H    0.142267   0.000267
    62  H    0.150018   0.000365
    63  O   -0.242937   0.001569
    64  H    0.277087  -0.000043
    65  O   -0.242933   0.001565
    66  H    0.277163  -0.000043
    67  O   -0.213317   0.024940
    68  H    0.288028  -0.000687
    69  O   -0.213229   0.025410
    70  H    0.288357  -0.000700
 Sum of Mulliken charges =   1.00000   1.00000

 Dipole moment (field-independent basis, Debye):
    X=            -14.2219    Y=             -0.4332    Z=              2.1587  Tot=             14.3913
 Quadrupole moment (field-independent basis, Debye-Ang):
   XX=            -20.4878   YY=           -194.1622   ZZ=           -230.3117
   XY=             -5.6848   XZ=            -15.5493   YZ=            -18.3186

 Normal termination of Gaussian 16 at Mon Jan 18 06:59:49 2021.
