 Gaussian 16, Revision A.03,
 Gaussian 16:  EM64L-G16RevA.03 25-Dec-2016

 ----------------------------------------------------------------------
 #P LC-wHPBE/TZVP iop(3/107=0174500000, 3/108=0174500000) scf=(conver=6
 ,fermi,ndamp=35,noincfock,novaracc,vshift=500,xqc)
 ----------------------------------------------------------------------

 -------------
 H28 C36 N2 O4
 -------------
 Symbolic Z-matrix:
 Charge =  1 Multiplicity = 2

                         Standard orientation:
 ---------------------------------------------------------------------
 Center     Atomic      Atomic             Coordinates (Angstroms)
 Number     Number       Type             X           Y           Z
 ---------------------------------------------------------------------
      1          6           0        2.858499   -1.142103    0.374244
      2          6           0        3.579312    0.001087   -0.003359
      3          6           0        1.469111   -1.138314    0.362939
      4          6           0        2.858875    1.143435   -0.384264
      5          6           0        0.739097   -0.000512   -0.009817
      6          6           0        1.469477    1.138129   -0.379362
      7          1           0        0.937192   -2.033473    0.688815
      8          1           0        3.397761    2.037798   -0.696269
      9          1           0        0.938071    2.032504   -0.708142
     10          6           0       -0.742883   -0.001384   -0.012974
     11          6           0       -1.474511    1.130858    0.372988
     12          6           0       -1.471490   -1.134716   -0.402503
     13          6           0       -2.864100    1.134318    0.378218
     14          6           0       -2.860735   -1.140009   -0.413286
     15          6           0       -3.582937   -0.003346   -0.018716
     16          1           0       -0.944110    2.021230    0.714069
     17          1           0       -0.938347   -2.023708   -0.742945
     18          1           0       -3.404263    2.023625    0.702274
     19          1           0       -3.398798   -2.029064   -0.741639
     20          1           0        3.397024   -2.035914    0.688457
     21          7           0       -4.995311   -0.005703   -0.022721
     22          6           0       -5.713915   -1.185510    0.315496
     23          6           0       -6.824749   -1.586223   -0.439679
     24          6           0       -5.336499   -1.964565    1.414395
     25          6           0       -7.543368   -2.726588   -0.103607
     26          6           0       -6.037549   -3.122582    1.739703
     27          6           0       -7.148838   -3.505710    0.986012
     28          1           0       -7.129554   -0.987536   -1.298124
     29          1           0       -4.477812   -1.664402    2.014832
     30          1           0       -8.408278   -3.036049   -0.689802
     31          1           0       -5.724570   -3.720924    2.598980
     32          6           0       -5.717056    1.178925   -0.336296
     33          6           0       -6.821807    1.565845    0.429047
     34          6           0       -5.346761    1.975943   -1.428789
     35          6           0       -7.543924    2.712298    0.107280
     36          6           0       -6.047800    3.134194   -1.738027
     37          6           0       -7.155651    3.506391   -0.973222
     38          1           0       -7.124426    0.956025    1.280239
     39          1           0       -4.491517    1.682511   -2.037555
     40          1           0       -8.407549    2.995534    0.714075
     41          1           0       -5.757368    3.754511   -2.585554
     42          7           0        4.991423    0.001999   -0.000060
     43          6           0        5.710552    1.183762    0.330631
     44          6           0        6.812654    1.584277   -0.431608
     45          6           0        5.340603    1.964026    1.435102
     46          6           0        7.532572    2.727778   -0.095183
     47          6           0        6.039551    3.119564    1.759528
     48          6           0        7.144632    3.505373    0.997606
     49          1           0        7.113605    0.987752   -1.292811
     50          1           0        4.486562    1.660323    2.040543
     51          1           0        8.393358    3.022713   -0.700462
     52          1           0        5.749024    3.727528    2.615933
     53          6           0        5.713955   -1.178690   -0.326778
     54          6           0        6.814458   -1.575861    0.439552
     55          6           0        5.349314   -1.961286   -1.431414
     56          6           0        7.537888   -2.718318    0.107058
     57          6           0        6.051756   -3.115796   -1.751909
     58          6           0        7.155153   -3.498257   -0.985865
     59          1           0        7.111509   -0.977436    1.300789
     60          1           0        4.496830   -1.660119   -2.040298
     61          1           0        8.397429   -3.010471    0.715458
     62          1           0        5.765438   -3.725350   -2.608604
     63          8           0        7.820509   -4.641023   -1.355507
     64          1           0        8.555246   -4.788670   -0.739309
     65          8           0        7.806379    4.648952    1.371018
     66          1           0        8.541702    4.800061    0.756350
     67          8           0       -7.887404   -4.628973    1.265636
     68          1           0       -7.503413   -5.071476    2.038990
     69          8           0       -7.819547    4.653451   -1.332021
     70          1           0       -8.560354    4.790553   -0.720672
 ---------------------------------------------------------------------

 SCF Done:  E(ULC-wHPBE) =  -1797.75617634     A.U. after   24 cycles

 The electronic state is 2-A.
 Alpha  occ. eigenvalues --  -18.96752 -18.96690 -18.96567 -18.96561 -14.24667
 Alpha  occ. eigenvalues --  -14.24314 -10.14063 -10.14005 -10.13888 -10.13858
 Alpha  occ. eigenvalues --  -10.13854 -10.13737 -10.12191 -10.12154 -10.11970
 Alpha  occ. eigenvalues --  -10.11964 -10.10365 -10.10236 -10.09212 -10.09207
 Alpha  occ. eigenvalues --  -10.09172 -10.09169 -10.09106 -10.09092 -10.09018
 Alpha  occ. eigenvalues --  -10.09009 -10.08910 -10.08752 -10.08640 -10.08590
 Alpha  occ. eigenvalues --  -10.08585 -10.08576 -10.08487 -10.08486 -10.08302
 Alpha  occ. eigenvalues --  -10.08204 -10.08078 -10.08071 -10.07622 -10.07612
 Alpha  occ. eigenvalues --  -10.07487 -10.07484  -1.16067  -1.16004  -1.15889
 Alpha  occ. eigenvalues --   -1.15883  -1.10285  -1.10021  -1.00082  -0.98454
 Alpha  occ. eigenvalues --   -0.98106  -0.97919  -0.96712  -0.96069  -0.91531
 Alpha  occ. eigenvalues --   -0.89042  -0.88705  -0.88434  -0.87866  -0.87694
 Alpha  occ. eigenvalues --   -0.87555  -0.87386  -0.87216  -0.87063  -0.84597
 Alpha  occ. eigenvalues --   -0.82923  -0.78496  -0.77628  -0.76867  -0.76561
 Alpha  occ. eigenvalues --   -0.75758  -0.75583  -0.75217  -0.74660  -0.73623
 Alpha  occ. eigenvalues --   -0.73424  -0.71692  -0.71087  -0.69073  -0.68673
 Alpha  occ. eigenvalues --   -0.68500  -0.68420  -0.68015  -0.67846  -0.67062
 Alpha  occ. eigenvalues --   -0.66481  -0.65159  -0.62932  -0.62523  -0.61657
 Alpha  occ. eigenvalues --   -0.61074  -0.60810  -0.59673  -0.59126  -0.58932
 Alpha  occ. eigenvalues --   -0.58334  -0.58306  -0.58260  -0.57993  -0.57251
 Alpha  occ. eigenvalues --   -0.56745  -0.56681  -0.56453  -0.56363  -0.56303
 Alpha  occ. eigenvalues --   -0.56172  -0.55719  -0.55338  -0.55207  -0.55194
 Alpha  occ. eigenvalues --   -0.55067  -0.54592  -0.54340  -0.54141  -0.53783
 Alpha  occ. eigenvalues --   -0.53380  -0.52454  -0.51965  -0.51460  -0.51197
 Alpha  occ. eigenvalues --   -0.50315  -0.50092  -0.50077  -0.49835  -0.49244
 Alpha  occ. eigenvalues --   -0.49077  -0.48841  -0.48170  -0.47957  -0.47925
 Alpha  occ. eigenvalues --   -0.47881  -0.46587  -0.44809  -0.42311  -0.42164
 Alpha  occ. eigenvalues --   -0.41817  -0.41290  -0.41109  -0.40973  -0.40715
 Alpha  occ. eigenvalues --   -0.39148  -0.38351  -0.38218  -0.34316  -0.33192
 Alpha virt. eigenvalues --   -0.09507  -0.07829  -0.07599  -0.05838  -0.05727
 Alpha virt. eigenvalues --   -0.05679  -0.05398  -0.05374  -0.05208  -0.05082
 Alpha virt. eigenvalues --   -0.02429  -0.01168   0.00681   0.00864   0.00885

  Beta  occ. eigenvalues --  -18.96708 -18.96646 -18.96527 -18.96521 -14.24260
  Beta  occ. eigenvalues --  -14.23932 -10.14001 -10.13943 -10.13862 -10.13801
  Beta  occ. eigenvalues --  -10.13796 -10.13707 -10.12212 -10.12175 -10.11990
  Beta  occ. eigenvalues --  -10.11984 -10.10278 -10.10156 -10.09193 -10.09190
  Beta  occ. eigenvalues --  -10.09134 -10.09126 -10.09098 -10.09084 -10.08969
  Beta  occ. eigenvalues --  -10.08960 -10.08849 -10.08694 -10.08584 -10.08535
  Beta  occ. eigenvalues --  -10.08530 -10.08523 -10.08435 -10.08434 -10.08320
  Beta  occ. eigenvalues --  -10.08217 -10.08091 -10.08084 -10.07638 -10.07631
  Beta  occ. eigenvalues --  -10.07505 -10.07502  -1.15987  -1.15923  -1.15815
  Beta  occ. eigenvalues --   -1.15810  -1.09787  -1.09554  -0.99919  -0.98314
  Beta  occ. eigenvalues --   -0.98019  -0.97839  -0.96587  -0.95921  -0.91330
  Beta  occ. eigenvalues --   -0.88964  -0.88624  -0.88331  -0.87797  -0.87635
  Beta  occ. eigenvalues --   -0.87497  -0.87320  -0.87142  -0.86961  -0.84415
  Beta  occ. eigenvalues --   -0.82645  -0.78415  -0.77514  -0.76765  -0.76456
  Beta  occ. eigenvalues --   -0.75671  -0.75475  -0.75133  -0.74568  -0.73520
  Beta  occ. eigenvalues --   -0.73311  -0.71610  -0.71007  -0.68998  -0.68598
  Beta  occ. eigenvalues --   -0.68445  -0.68368  -0.67966  -0.67770  -0.66967
  Beta  occ. eigenvalues --   -0.66370  -0.65062  -0.62702  -0.62326  -0.61593
  Beta  occ. eigenvalues --   -0.61020  -0.60756  -0.59522  -0.59031  -0.58855
  Beta  occ. eigenvalues --   -0.58265  -0.58256  -0.58192  -0.57947  -0.57204
  Beta  occ. eigenvalues --   -0.56686  -0.56622  -0.56405  -0.56324  -0.56258
  Beta  occ. eigenvalues --   -0.56124  -0.55639  -0.55171  -0.55018  -0.54997
  Beta  occ. eigenvalues --   -0.54901  -0.54470  -0.54182  -0.53931  -0.53593
  Beta  occ. eigenvalues --   -0.53135  -0.52207  -0.51804  -0.51400  -0.51139
  Beta  occ. eigenvalues --   -0.50070  -0.49986  -0.49955  -0.49568  -0.48986
  Beta  occ. eigenvalues --   -0.48838  -0.48659  -0.48108  -0.47915  -0.47863
  Beta  occ. eigenvalues --   -0.47845  -0.46225  -0.43900  -0.42172  -0.42030
  Beta  occ. eigenvalues --   -0.41181  -0.41038  -0.40994  -0.40818  -0.40301
  Beta  occ. eigenvalues --   -0.37833  -0.37776  -0.37707  -0.30514
  Beta virt. eigenvalues --   -0.22215  -0.09165  -0.07591  -0.07360  -0.05568
  Beta virt. eigenvalues --   -0.05447  -0.05399  -0.05089  -0.04997  -0.04933
  Beta virt. eigenvalues --   -0.04773  -0.01895  -0.00562   0.00699   0.00880

 Mulliken charges and spin densities:
               1          2
     1  C   -0.135852   0.030419
     2  C    0.015486   0.034440
     3  C   -0.135305  -0.002342
     4  C   -0.135750   0.030349
     5  C    0.032526   0.055751
     6  C   -0.135262  -0.002451
     7  H    0.143189  -0.000233
     8  H    0.169757  -0.001340
     9  H    0.144740  -0.000239
    10  C    0.031235   0.060566
    11  C   -0.135430  -0.004599
    12  C   -0.135154  -0.005778
    13  C   -0.132365   0.033371
    14  C   -0.136278   0.034005
    15  C    0.010031   0.033213
    16  H    0.145412  -0.000122
    17  H    0.145576  -0.000071
    18  H    0.170032  -0.001483
    19  H    0.169404  -0.001488
    20  H    0.169503  -0.001343
    21  N    0.041950   0.179843
    22  C   -0.123550  -0.005474
    23  C   -0.048320   0.036618
    24  C   -0.077832   0.039717
    25  C   -0.194384  -0.016682
    26  C   -0.163799  -0.019339
    27  C    0.124504   0.045390
    28  H    0.153408  -0.001569
    29  H    0.154107  -0.002009
    30  H    0.145232   0.000828
    31  H    0.130501   0.000980
    32  C   -0.117207  -0.005101
    33  C   -0.069718   0.040868
    34  C   -0.060854   0.036136
    35  C   -0.160215  -0.016331
    36  C   -0.191826  -0.019747
    37  C    0.121657   0.045886
    38  H    0.154645  -0.001831
    39  H    0.153542  -0.001791
    40  H    0.133957   0.000741
    41  H    0.142727   0.001049
    42  N    0.040075   0.169151
    43  C   -0.126063  -0.005498
    44  C   -0.069709   0.037949
    45  C   -0.055950   0.033448
    46  C   -0.161928  -0.015346
    47  C   -0.193364  -0.018211
    48  C    0.121855   0.042096
    49  H    0.153389  -0.001691
    50  H    0.151764  -0.001671
    51  H    0.133165   0.000698
    52  H    0.141447   0.000987
    53  C   -0.124402  -0.005551
    54  C   -0.070378   0.038070
    55  C   -0.057129   0.033548
    56  C   -0.161895  -0.015392
    57  C   -0.193280  -0.018285
    58  C    0.121670   0.042219
    59  H    0.153404  -0.001695
    60  H    0.152324  -0.001675
    61  H    0.133044   0.000699
    62  H    0.141658   0.000988
    63  O   -0.217249   0.013845
    64  H    0.280453  -0.000341
    65  O   -0.217253   0.013818
    66  H    0.280523  -0.000340
    67  O   -0.215163   0.014920
    68  H    0.279965  -0.000368
    69  O   -0.215994   0.015197
    70  H    0.281001  -0.000376
 Sum of Mulliken charges =   1.00000   1.00000

 Dipole moment (field-independent basis, Debye):
    X=              1.0795    Y=             -0.4181    Z=              2.0819  Tot=              2.3821
 Quadrupole moment (field-independent basis, Debye-Ang):
   XX=            -17.3323   YY=           -191.8229   ZZ=           -231.1889
   XY=             -5.4425   XZ=            -14.9417   YZ=            -12.4607

 Normal termination of Gaussian 16 at Mon Jan 18 12:24:08 2021.
