 Gaussian 16, Revision A.03,
 Gaussian 16:  EM64L-G16RevA.03 25-Dec-2016

 ----------------------------------------------------------------------
 #P LC-wHPBE/TZVP iop(3/107=0182700000, 3/108=0182700000) scf=(conver=6
 ,fermi,ndamp=35,noincfock,novaracc,vshift=500,xqc)
 ----------------------------------------------------------------------

 -------------
 H28 C36 N2 O4
 -------------
 Symbolic Z-matrix:
 Charge =  0 Multiplicity = 1

                         Standard orientation:
 ---------------------------------------------------------------------
 Center     Atomic      Atomic             Coordinates (Angstroms)
 Number     Number       Type             X           Y           Z
 ---------------------------------------------------------------------
      1          6           0        2.858499   -1.142103    0.374244
      2          6           0        3.579312    0.001087   -0.003359
      3          6           0        1.469111   -1.138314    0.362939
      4          6           0        2.858875    1.143435   -0.384264
      5          6           0        0.739097   -0.000512   -0.009817
      6          6           0        1.469477    1.138129   -0.379362
      7          1           0        0.937192   -2.033473    0.688815
      8          1           0        3.397761    2.037798   -0.696269
      9          1           0        0.938071    2.032504   -0.708142
     10          6           0       -0.742883   -0.001384   -0.012974
     11          6           0       -1.474511    1.130858    0.372988
     12          6           0       -1.471490   -1.134716   -0.402503
     13          6           0       -2.864100    1.134318    0.378218
     14          6           0       -2.860735   -1.140009   -0.413286
     15          6           0       -3.582937   -0.003346   -0.018716
     16          1           0       -0.944110    2.021230    0.714069
     17          1           0       -0.938347   -2.023708   -0.742945
     18          1           0       -3.404263    2.023625    0.702274
     19          1           0       -3.398798   -2.029064   -0.741639
     20          1           0        3.397024   -2.035914    0.688457
     21          7           0       -4.995311   -0.005703   -0.022721
     22          6           0       -5.713915   -1.185510    0.315496
     23          6           0       -6.824749   -1.586223   -0.439679
     24          6           0       -5.336499   -1.964565    1.414395
     25          6           0       -7.543368   -2.726588   -0.103607
     26          6           0       -6.037549   -3.122582    1.739703
     27          6           0       -7.148838   -3.505710    0.986012
     28          1           0       -7.129554   -0.987536   -1.298124
     29          1           0       -4.477812   -1.664402    2.014832
     30          1           0       -8.408278   -3.036049   -0.689802
     31          1           0       -5.724570   -3.720924    2.598980
     32          6           0       -5.717056    1.178925   -0.336296
     33          6           0       -6.821807    1.565845    0.429047
     34          6           0       -5.346761    1.975943   -1.428789
     35          6           0       -7.543924    2.712298    0.107280
     36          6           0       -6.047800    3.134194   -1.738027
     37          6           0       -7.155651    3.506391   -0.973222
     38          1           0       -7.124426    0.956025    1.280239
     39          1           0       -4.491517    1.682511   -2.037555
     40          1           0       -8.407549    2.995534    0.714075
     41          1           0       -5.757368    3.754511   -2.585554
     42          7           0        4.991423    0.001999   -0.000060
     43          6           0        5.710552    1.183762    0.330631
     44          6           0        6.812654    1.584277   -0.431608
     45          6           0        5.340603    1.964026    1.435102
     46          6           0        7.532572    2.727778   -0.095183
     47          6           0        6.039551    3.119564    1.759528
     48          6           0        7.144632    3.505373    0.997606
     49          1           0        7.113605    0.987752   -1.292811
     50          1           0        4.486562    1.660323    2.040543
     51          1           0        8.393358    3.022713   -0.700462
     52          1           0        5.749024    3.727528    2.615933
     53          6           0        5.713955   -1.178690   -0.326778
     54          6           0        6.814458   -1.575861    0.439552
     55          6           0        5.349314   -1.961286   -1.431414
     56          6           0        7.537888   -2.718318    0.107058
     57          6           0        6.051756   -3.115796   -1.751909
     58          6           0        7.155153   -3.498257   -0.985865
     59          1           0        7.111509   -0.977436    1.300789
     60          1           0        4.496830   -1.660119   -2.040298
     61          1           0        8.397429   -3.010471    0.715458
     62          1           0        5.765438   -3.725350   -2.608604
     63          8           0        7.820509   -4.641023   -1.355507
     64          1           0        8.555246   -4.788670   -0.739309
     65          8           0        7.806379    4.648952    1.371018
     66          1           0        8.541702    4.800061    0.756350
     67          8           0       -7.887404   -4.628973    1.265636
     68          1           0       -7.503413   -5.071476    2.038990
     69          8           0       -7.819547    4.653451   -1.332021
     70          1           0       -8.560354    4.790553   -0.720672
 ---------------------------------------------------------------------

 SCF Done:  E(RLC-wHPBE) =  -1797.99752913     A.U. after   14 cycles

 The electronic state is 1-A.
 Alpha  occ. eigenvalues --  -18.88639 -18.88634 -18.88581 -18.88511 -14.11889
 Alpha  occ. eigenvalues --  -14.11834 -10.05141 -10.05139 -10.05081 -10.05012
 Alpha  occ. eigenvalues --  -10.02833 -10.02806 -10.02734 -10.02730 -10.02677
 Alpha  occ. eigenvalues --  -10.02636  -9.99716  -9.99712  -9.99660  -9.99590
 Alpha  occ. eigenvalues --   -9.99555  -9.99553  -9.99491  -9.99437  -9.99388
 Alpha  occ. eigenvalues --   -9.99386  -9.99332  -9.99272  -9.99231  -9.99217
 Alpha  occ. eigenvalues --   -9.99081  -9.99080  -9.99022  -9.98963  -9.98686
 Alpha  occ. eigenvalues --   -9.98679  -9.98673  -9.98671  -9.98440  -9.98435
 Alpha  occ. eigenvalues --   -9.98431  -9.98426  -1.08045  -1.08041  -1.07985
 Alpha  occ. eigenvalues --   -1.07917  -0.99075  -0.99017  -0.89518  -0.89056
 Alpha  occ. eigenvalues --   -0.88975  -0.88466  -0.87454  -0.86349  -0.81065
 Alpha  occ. eigenvalues --   -0.79386  -0.79334  -0.79232  -0.78859  -0.78776
 Alpha  occ. eigenvalues --   -0.78598  -0.77870  -0.77452  -0.77263  -0.75144
 Alpha  occ. eigenvalues --   -0.73135  -0.68858  -0.68150  -0.67563  -0.67379
 Alpha  occ. eigenvalues --   -0.66945  -0.66252  -0.65834  -0.65208  -0.64114
 Alpha  occ. eigenvalues --   -0.63354  -0.62647  -0.61503  -0.59921  -0.59825
 Alpha  occ. eigenvalues --   -0.59779  -0.59747  -0.58723  -0.58115  -0.57583
 Alpha  occ. eigenvalues --   -0.57165  -0.54903  -0.53533  -0.53322  -0.52127
 Alpha  occ. eigenvalues --   -0.51797  -0.51477  -0.49778  -0.49589  -0.49520
 Alpha  occ. eigenvalues --   -0.49472  -0.48986  -0.48876  -0.48644  -0.47795
 Alpha  occ. eigenvalues --   -0.47780  -0.47695  -0.47544  -0.47229  -0.47055
 Alpha  occ. eigenvalues --   -0.46956  -0.46754  -0.46640  -0.46513  -0.46413
 Alpha  occ. eigenvalues --   -0.46100  -0.45181  -0.45018  -0.44716  -0.43689
 Alpha  occ. eigenvalues --   -0.43571  -0.43212  -0.42838  -0.42576  -0.42496
 Alpha  occ. eigenvalues --   -0.40933  -0.40663  -0.40383  -0.40301  -0.39882
 Alpha  occ. eigenvalues --   -0.39665  -0.39552  -0.39315  -0.39251  -0.39099
 Alpha  occ. eigenvalues --   -0.38424  -0.36215  -0.34571  -0.32767  -0.32706
 Alpha  occ. eigenvalues --   -0.32257  -0.32010  -0.31385  -0.31278  -0.31245
 Alpha  occ. eigenvalues --   -0.29500  -0.29377  -0.29156  -0.24011  -0.22487
 Alpha virt. eigenvalues --    0.01453   0.02125   0.02213   0.03813   0.03903
 Alpha virt. eigenvalues --    0.04167   0.04269   0.04684   0.05038   0.05111
 Alpha virt. eigenvalues --    0.07610   0.08173   0.08230   0.08255   0.08330

 Mulliken charges:
               1
     1  C   -0.148368
     2  C    0.017258
     3  C   -0.151066
     4  C   -0.148310
     5  C    0.029589
     6  C   -0.151038
     7  H    0.119558
     8  H    0.145204
     9  H    0.121211
    10  C    0.029913
    11  C   -0.151221
    12  C   -0.150726
    13  C   -0.145689
    14  C   -0.149413
    15  C    0.012445
    16  H    0.120906
    17  H    0.121037
    18  H    0.145244
    19  H    0.144297
    20  H    0.144920
    21  N   -0.002798
    22  C   -0.113196
    23  C   -0.059486
    24  C   -0.084613
    25  C   -0.203185
    26  C   -0.175942
    27  C    0.118620
    28  H    0.134989
    29  H    0.143422
    30  H    0.117370
    31  H    0.106907
    32  C   -0.107206
    33  C   -0.081705
    34  C   -0.067240
    35  C   -0.173205
    36  C   -0.199931
    37  C    0.115505
    38  H    0.136727
    39  H    0.142087
    40  H    0.107457
    41  H    0.117570
    42  N   -0.001930
    43  C   -0.116205
    44  C   -0.080902
    45  C   -0.061558
    46  C   -0.174137
    47  C   -0.201021
    48  C    0.116210
    49  H    0.136102
    50  H    0.141763
    51  H    0.107699
    52  H    0.117553
    53  C   -0.114562
    54  C   -0.081609
    55  C   -0.062768
    56  C   -0.174112
    57  C   -0.200939
    58  C    0.116008
    59  H    0.136113
    60  H    0.142300
    61  H    0.107559
    62  H    0.117745
    63  O   -0.242669
    64  H    0.268430
    65  O   -0.242650
    66  H    0.268507
    67  O   -0.242988
    68  H    0.268497
    69  O   -0.242800
    70  H    0.268465
 Sum of Mulliken charges =  -0.00000

 Dipole moment (field-independent basis, Debye):
    X=              1.6803    Y=             -0.4220    Z=              2.0488  Tot=              2.6831
 Quadrupole moment (field-independent basis, Debye-Ang):
   XX=           -190.5645   YY=           -232.7546   ZZ=           -241.7571
   XY=             -5.2433   XZ=            -14.6940   YZ=            -12.0441

 Normal termination of Gaussian 16 at Mon Jan 18 09:55:52 2021.
