 Gaussian 16, Revision A.03,
 Gaussian 16:  EM64L-G16RevA.03 25-Dec-2016

 ----------------------------------------------------------------------
 #P LC-wHPBE/TZVP iop(3/107=0181400000, 3/108=0181400000) scf=(conver=6
 ,fermi,ndamp=35,noincfock,novaracc,vshift=500,xqc)
 ----------------------------------------------------------------------

 ----------
 H28 C36 N2
 ----------
 Symbolic Z-matrix:
 Charge =  0 Multiplicity = 1

                         Standard orientation:
 ---------------------------------------------------------------------
 Center     Atomic      Atomic             Coordinates (Angstroms)
 Number     Number       Type             X           Y           Z
 ---------------------------------------------------------------------
      1          6           0       -2.849999   -1.125861   -0.415638
      2          6           0       -3.563139   -0.000026    0.000017
      3          6           0       -1.464492   -1.123667   -0.405534
      4          6           0       -2.850033    1.125752    0.415809
      5          6           0       -0.741288   -0.000047    0.000195
      6          6           0       -1.464504    1.123547    0.405879
      7          1           0       -0.931596   -2.005844   -0.756198
      8          1           0       -3.391048    2.006254    0.754990
      9          1           0       -0.931669    2.005728    0.756629
     10          6           0        0.741437   -0.000073    0.000217
     11          6           0        1.464635    1.123165   -0.406556
     12          6           0        1.464638   -1.123302    0.406976
     13          6           0        2.850149    1.125343   -0.416610
     14          6           0        2.850163   -1.125491    0.416935
     15          6           0        3.563257   -0.000095    0.000116
     16          1           0        0.931751    2.005025   -0.758038
     17          1           0        0.931783   -2.005140    0.758553
     18          1           0        3.391193    2.005527   -0.756576
     19          1           0        3.391211   -2.005669    0.756913
     20          1           0       -3.391005   -2.006357   -0.754845
     21          7           0        4.978430   -0.000102    0.000065
     22          6           0        5.687099   -1.154578   -0.414287
     23          6           0        6.831881   -1.566674    0.271150
     24          6           0        5.251323   -1.896933   -1.513908
     25          6           0        7.528311   -2.692826   -0.143324
     26          6           0        5.943392   -3.032223   -1.910440
     27          6           0        7.087522   -3.435368   -1.232277
     28          1           0        7.173684   -0.995181    1.131117
     29          1           0        4.363437   -1.577947   -2.055099
     30          1           0        8.419174   -2.999763    0.401550
     31          1           0        5.589860   -3.599797   -2.769285
     32          1           0        7.631852   -4.321852   -1.550225
     33          6           0        5.687025    1.154532    0.414292
     34          6           0        6.831191    1.567225   -0.271802
     35          6           0        5.251707    1.896381    1.514415
     36          6           0        7.527485    2.693516    0.142525
     37          6           0        5.943620    3.031828    1.910808
     38          6           0        7.087137    3.435581    1.231989
     39          1           0        7.172616    0.996083   -1.132151
     40          1           0        4.364291    1.576910    2.056093
     41          1           0        8.417875    3.000945   -0.402845
     42          1           0        5.590451    3.599029    2.770050
     43          1           0        7.631350    4.322181    1.549815
     44          7           0       -4.978266    0.000020   -0.000103
     45          6           0       -5.686990    1.154558   -0.414335
     46          6           0       -6.831289    1.566980    0.271699
     47          6           0       -5.251761    1.896543   -1.514410
     48          6           0       -7.527834    2.693112   -0.142653
     49          6           0       -5.943923    3.031822   -1.910819
     50          6           0       -7.087590    3.435293   -1.232069
     51          1           0       -7.172649    0.995729    1.132000
     52          1           0       -4.364233    1.577285   -2.056034
     53          1           0       -8.418333    3.000297    0.402674
     54          1           0       -5.590850    3.599137   -2.770027
     55          1           0       -7.631979    4.321768   -1.549941
     56          6           0       -5.687017   -1.154516    0.414141
     57          6           0       -6.831068   -1.567191   -0.272109
     58          6           0       -5.251977   -1.896199    1.514492
     59          6           0       -7.527566   -2.693348    0.142281
     60          6           0       -5.944079   -3.031486    1.910953
     61          6           0       -7.087509   -3.435246    1.231958
     62          1           0       -7.172277   -0.996155   -1.132614
     63          1           0       -4.364636   -1.576682    2.056275
     64          1           0       -8.417864   -3.000787   -0.403227
     65          1           0       -5.591165   -3.598572    2.770374
     66          1           0       -7.631874   -4.321730    1.549857
 ---------------------------------------------------------------------

 SCF Done:  E(RLC-wHPBE) =  -1497.21020284     A.U. after   14 cycles

 The electronic state is 1-A.
 Alpha  occ. eigenvalues --  -14.12243 -14.12242 -10.03136 -10.03135 -10.03134
 Alpha  occ. eigenvalues --  -10.03134 -10.03059 -10.03058  -9.99723  -9.99709
 Alpha  occ. eigenvalues --   -9.99114  -9.99114  -9.99113  -9.99112  -9.99112
 Alpha  occ. eigenvalues --   -9.99111  -9.99111  -9.99109  -9.99053  -9.99052
 Alpha  occ. eigenvalues --   -9.99050  -9.99049  -9.98856  -9.98855  -9.98855
 Alpha  occ. eigenvalues --   -9.98854  -9.98838  -9.98838  -9.98837  -9.98835
 Alpha  occ. eigenvalues --   -9.98832  -9.98831  -9.98831  -9.98829  -9.98645
 Alpha  occ. eigenvalues --   -9.98644  -9.98644  -9.98642  -0.99673  -0.99668
 Alpha  occ. eigenvalues --   -0.90236  -0.89200  -0.89198  -0.88908  -0.87721
 Alpha  occ. eigenvalues --   -0.86877  -0.81680  -0.79832  -0.79753  -0.79106
 Alpha  occ. eigenvalues --   -0.78556  -0.78449  -0.78228  -0.78208  -0.77937
 Alpha  occ. eigenvalues --   -0.77672  -0.75590  -0.73565  -0.68528  -0.67805
 Alpha  occ. eigenvalues --   -0.67208  -0.66270  -0.65760  -0.64843  -0.64811
 Alpha  occ. eigenvalues --   -0.64696  -0.63797  -0.63717  -0.62021  -0.61394
 Alpha  occ. eigenvalues --   -0.59067  -0.58887  -0.58661  -0.58419  -0.56087
 Alpha  occ. eigenvalues --   -0.54552  -0.53596  -0.53499  -0.52924  -0.52379
 Alpha  occ. eigenvalues --   -0.51662  -0.50651  -0.50385  -0.50157  -0.49681
 Alpha  occ. eigenvalues --   -0.49228  -0.49185  -0.48790  -0.48334  -0.48292
 Alpha  occ. eigenvalues --   -0.48189  -0.47531  -0.47339  -0.47272  -0.47128
 Alpha  occ. eigenvalues --   -0.47122  -0.46819  -0.45238  -0.44083  -0.43877
 Alpha  occ. eigenvalues --   -0.43582  -0.43531  -0.43475  -0.43147  -0.41795
 Alpha  occ. eigenvalues --   -0.41453  -0.40960  -0.40764  -0.40458  -0.40397
 Alpha  occ. eigenvalues --   -0.40136  -0.39539  -0.39308  -0.39126  -0.38944
 Alpha  occ. eigenvalues --   -0.37239  -0.36589  -0.33947  -0.32727  -0.32702
 Alpha  occ. eigenvalues --   -0.32668  -0.32661  -0.31802  -0.31555  -0.31498
 Alpha  occ. eigenvalues --   -0.31464  -0.30628  -0.25157  -0.23709
 Alpha virt. eigenvalues --    0.00778   0.02220   0.02275   0.02662   0.02664
 Alpha virt. eigenvalues --    0.04182   0.04489   0.04679   0.04715   0.04723
 Alpha virt. eigenvalues --    0.06894   0.08651   0.10135   0.10353   0.11127

 Mulliken charges:
               1
     1  C   -0.121120
     2  C   -0.037087
     3  C   -0.151002
     4  C   -0.121146
     5  C    0.034522
     6  C   -0.150991
     7  H    0.123569
     8  H    0.143734
     9  H    0.123567
    10  C    0.034614
    11  C   -0.151016
    12  C   -0.151008
    13  C   -0.120794
    14  C   -0.120899
    15  C   -0.037685
    16  H    0.123570
    17  H    0.123571
    18  H    0.143658
    19  H    0.143680
    20  H    0.143727
    21  N   -0.005929
    22  C   -0.053196
    23  C   -0.113739
    24  C   -0.107729
    25  C   -0.110646
    26  C   -0.110617
    27  C   -0.101151
    28  H    0.148254
    29  H    0.146561
    30  H    0.104246
    31  H    0.104209
    32  H    0.102937
    33  C   -0.053603
    34  C   -0.113564
    35  C   -0.107506
    36  C   -0.110663
    37  C   -0.110620
    38  C   -0.101105
    39  H    0.148234
    40  H    0.146501
    41  H    0.104253
    42  H    0.104216
    43  H    0.102948
    44  N   -0.005936
    45  C   -0.053580
    46  C   -0.113466
    47  C   -0.107631
    48  C   -0.110646
    49  C   -0.110621
    50  C   -0.101112
    51  H    0.148191
    52  H    0.146546
    53  H    0.104254
    54  H    0.104218
    55  H    0.102950
    56  C   -0.053779
    57  C   -0.113393
    58  C   -0.107511
    59  C   -0.110657
    60  C   -0.110634
    61  C   -0.101091
    62  H    0.148175
    63  H    0.146536
    64  H    0.104257
    65  H    0.104220
    66  H    0.102953
 Sum of Mulliken charges =  -0.00000

 Dipole moment (field-independent basis, Debye):
    X=             -0.0037    Y=              0.0007    Z=              0.0005  Tot=              0.0039
 Quadrupole moment (field-independent basis, Debye-Ang):
   XX=           -204.7738   YY=           -206.9898   ZZ=           -218.0164
   XY=              0.0143   XZ=              0.0007   YZ=             -0.0051

 1\1\GINC-CASCADEB019\SP\RLC-wHPBE\TZVP\C36H28N2\RDU230\18-Jan-2021\0\\
 #P LC-wHPBE/TZVP iop(3/107=0181400000, 3/108=0181400000) scf=(conver=6
 ,fermi,ndamp=35,noincfock,novaracc,vshift=500,xqc)\\H28 C36 N2\\0,1\C,
 0,2.849999,-1.125861,0.415638\C,0,3.563139,-0.000026,-0.000017\C,0,1.4
 64492,-1.123667,0.405534\C,0,2.850033,1.125752,-0.415809\C,0,0.741288,
 -0.000047,-0.000195\C,0,1.464504,1.123547,-0.405879\H,0,0.931596,-2.00
 5844,0.756198\H,0,3.391048,2.006254,-0.75499\H,0,0.931669,2.005728,-0.
 756629\C,0,-0.741437,-0.000073,-0.000217\C,0,-1.464635,1.123165,0.4065

 Normal termination of Gaussian 16 at Mon Jan 18 00:49:06 2021.
