 Gaussian 16, Revision A.03,
 Gaussian 16:  EM64L-G16RevA.03 25-Dec-2016

 ----------------------------------------------------------------------
 #P LC-wHPBE/TZVP iop(3/107=0177700000, 3/108=0177700000) scf=(conver=6
 ,fermi,ndamp=35,noincfock,novaracc,vshift=500,xqc)
 ----------------------------------------------------------------------

 ----------
 H28 C36 N2
 ----------
 Symbolic Z-matrix:
 Charge =  1 Multiplicity = 2

                         Standard orientation:
 ---------------------------------------------------------------------
 Center     Atomic      Atomic             Coordinates (Angstroms)
 Number     Number       Type             X           Y           Z
 ---------------------------------------------------------------------
      1          6           0       -2.849999   -1.125861   -0.415638
      2          6           0       -3.563139   -0.000026    0.000017
      3          6           0       -1.464492   -1.123667   -0.405534
      4          6           0       -2.850033    1.125752    0.415809
      5          6           0       -0.741288   -0.000047    0.000195
      6          6           0       -1.464504    1.123547    0.405879
      7          1           0       -0.931596   -2.005844   -0.756198
      8          1           0       -3.391048    2.006254    0.754990
      9          1           0       -0.931669    2.005728    0.756629
     10          6           0        0.741437   -0.000073    0.000217
     11          6           0        1.464635    1.123165   -0.406556
     12          6           0        1.464638   -1.123302    0.406976
     13          6           0        2.850149    1.125343   -0.416610
     14          6           0        2.850163   -1.125491    0.416935
     15          6           0        3.563257   -0.000095    0.000116
     16          1           0        0.931751    2.005025   -0.758038
     17          1           0        0.931783   -2.005140    0.758553
     18          1           0        3.391193    2.005527   -0.756576
     19          1           0        3.391211   -2.005669    0.756913
     20          1           0       -3.391005   -2.006357   -0.754845
     21          7           0        4.978430   -0.000102    0.000065
     22          6           0        5.687099   -1.154578   -0.414287
     23          6           0        6.831881   -1.566674    0.271150
     24          6           0        5.251323   -1.896933   -1.513908
     25          6           0        7.528311   -2.692826   -0.143324
     26          6           0        5.943392   -3.032223   -1.910440
     27          6           0        7.087522   -3.435368   -1.232277
     28          1           0        7.173684   -0.995181    1.131117
     29          1           0        4.363437   -1.577947   -2.055099
     30          1           0        8.419174   -2.999763    0.401550
     31          1           0        5.589860   -3.599797   -2.769285
     32          1           0        7.631852   -4.321852   -1.550225
     33          6           0        5.687025    1.154532    0.414292
     34          6           0        6.831191    1.567225   -0.271802
     35          6           0        5.251707    1.896381    1.514415
     36          6           0        7.527485    2.693516    0.142525
     37          6           0        5.943620    3.031828    1.910808
     38          6           0        7.087137    3.435581    1.231989
     39          1           0        7.172616    0.996083   -1.132151
     40          1           0        4.364291    1.576910    2.056093
     41          1           0        8.417875    3.000945   -0.402845
     42          1           0        5.590451    3.599029    2.770050
     43          1           0        7.631350    4.322181    1.549815
     44          7           0       -4.978266    0.000020   -0.000103
     45          6           0       -5.686990    1.154558   -0.414335
     46          6           0       -6.831289    1.566980    0.271699
     47          6           0       -5.251761    1.896543   -1.514410
     48          6           0       -7.527834    2.693112   -0.142653
     49          6           0       -5.943923    3.031822   -1.910819
     50          6           0       -7.087590    3.435293   -1.232069
     51          1           0       -7.172649    0.995729    1.132000
     52          1           0       -4.364233    1.577285   -2.056034
     53          1           0       -8.418333    3.000297    0.402674
     54          1           0       -5.590850    3.599137   -2.770027
     55          1           0       -7.631979    4.321768   -1.549941
     56          6           0       -5.687017   -1.154516    0.414141
     57          6           0       -6.831068   -1.567191   -0.272109
     58          6           0       -5.251977   -1.896199    1.514492
     59          6           0       -7.527566   -2.693348    0.142281
     60          6           0       -5.944079   -3.031486    1.910953
     61          6           0       -7.087509   -3.435246    1.231958
     62          1           0       -7.172277   -0.996155   -1.132614
     63          1           0       -4.364636   -1.576682    2.056275
     64          1           0       -8.417864   -3.000787   -0.403227
     65          1           0       -5.591165   -3.598572    2.770374
     66          1           0       -7.631874   -4.321730    1.549857
 ---------------------------------------------------------------------

 SCF Done:  E(ULC-wHPBE) =  -1496.96648563     A.U. after   22 cycles

 The electronic state is 2-A.
 Alpha  occ. eigenvalues --  -14.25370 -14.25369 -10.14688 -10.14686 -10.12989
 Alpha  occ. eigenvalues --  -10.12989 -10.12988 -10.12987 -10.11332 -10.11319
 Alpha  occ. eigenvalues --  -10.10062 -10.10062 -10.10059 -10.10058 -10.10020
 Alpha  occ. eigenvalues --  -10.10020 -10.10020 -10.10019 -10.08635 -10.08634
 Alpha  occ. eigenvalues --  -10.08634 -10.08633 -10.08471 -10.08471 -10.08471
 Alpha  occ. eigenvalues --  -10.08470 -10.08061 -10.08061 -10.08060 -10.08060
 Alpha  occ. eigenvalues --  -10.07988 -10.07988 -10.07987 -10.07987 -10.07880
 Alpha  occ. eigenvalues --  -10.07879 -10.07879 -10.07879  -1.11328  -1.11324
 Alpha  occ. eigenvalues --   -1.01399  -0.99649  -0.98695  -0.98695  -0.97413
 Alpha  occ. eigenvalues --   -0.96885  -0.92706  -0.90112  -0.89768  -0.89292
 Alpha  occ. eigenvalues --   -0.88826  -0.88493  -0.87801  -0.87463  -0.87462
 Alpha  occ. eigenvalues --   -0.87380  -0.85540  -0.83916  -0.79074  -0.78419
 Alpha  occ. eigenvalues --   -0.77281  -0.76359  -0.75911  -0.74736  -0.74413
 Alpha  occ. eigenvalues --   -0.74095  -0.73942  -0.73604  -0.71768  -0.71433
 Alpha  occ. eigenvalues --   -0.69446  -0.68685  -0.68500  -0.68259  -0.66382
 Alpha  occ. eigenvalues --   -0.64052  -0.63924  -0.63401  -0.62532  -0.62236
 Alpha  occ. eigenvalues --   -0.62079  -0.60565  -0.60429  -0.59840  -0.59727
 Alpha  occ. eigenvalues --   -0.59670  -0.58918  -0.58234  -0.57973  -0.57858
 Alpha  occ. eigenvalues --   -0.57770  -0.57696  -0.57642  -0.56586  -0.56454
 Alpha  occ. eigenvalues --   -0.56249  -0.56249  -0.55982  -0.54933  -0.54431
 Alpha  occ. eigenvalues --   -0.53587  -0.53326  -0.52988  -0.52958  -0.51561
 Alpha  occ. eigenvalues --   -0.51356  -0.50867  -0.50559  -0.50333  -0.49955
 Alpha  occ. eigenvalues --   -0.49920  -0.49194  -0.48863  -0.48496  -0.48468
 Alpha  occ. eigenvalues --   -0.47864  -0.46967  -0.44568  -0.43187  -0.43162
 Alpha  occ. eigenvalues --   -0.42143  -0.42137  -0.41822  -0.41315  -0.41296
 Alpha  occ. eigenvalues --   -0.40848  -0.40686  -0.36232  -0.35044
 Alpha virt. eigenvalues --   -0.10328  -0.08113  -0.07986  -0.06980  -0.06970
 Alpha virt. eigenvalues --   -0.06317  -0.05693  -0.05573  -0.04775  -0.04743
 Alpha virt. eigenvalues --   -0.03243  -0.02097   0.00873   0.01502   0.02543

  Beta  occ. eigenvalues --  -14.24968 -14.24967 -10.14645 -10.14642 -10.13021
  Beta  occ. eigenvalues --  -10.13020 -10.13020 -10.13019 -10.11249 -10.11235
  Beta  occ. eigenvalues --  -10.10044 -10.10044 -10.10042 -10.10040 -10.09980
  Beta  occ. eigenvalues --  -10.09980 -10.09980 -10.09980 -10.08566 -10.08566
  Beta  occ. eigenvalues --  -10.08565 -10.08565 -10.08407 -10.08407 -10.08407
  Beta  occ. eigenvalues --  -10.08406 -10.08088 -10.08088 -10.08088 -10.08088
  Beta  occ. eigenvalues --  -10.08012 -10.08012 -10.08012 -10.08012 -10.07810
  Beta  occ. eigenvalues --  -10.07810 -10.07809 -10.07809  -1.10830  -1.10825
  Beta  occ. eigenvalues --   -1.01226  -0.99492  -0.98610  -0.98610  -0.97286
  Beta  occ. eigenvalues --   -0.96739  -0.92491  -0.90037  -0.89686  -0.89143
  Beta  occ. eigenvalues --   -0.88743  -0.88414  -0.87729  -0.87398  -0.87397
  Beta  occ. eigenvalues --   -0.87290  -0.85350  -0.83611  -0.78966  -0.78276
  Beta  occ. eigenvalues --   -0.77146  -0.76238  -0.75776  -0.74588  -0.74355
  Beta  occ. eigenvalues --   -0.74009  -0.73861  -0.73530  -0.71679  -0.71349
  Beta  occ. eigenvalues --   -0.69374  -0.68590  -0.68427  -0.68181  -0.66292
  Beta  occ. eigenvalues --   -0.63894  -0.63835  -0.63310  -0.62418  -0.62054
  Beta  occ. eigenvalues --   -0.61748  -0.60490  -0.60290  -0.59761  -0.59640
  Beta  occ. eigenvalues --   -0.59629  -0.58846  -0.58190  -0.57936  -0.57763
  Beta  occ. eigenvalues --   -0.57719  -0.57625  -0.57591  -0.56518  -0.56412
  Beta  occ. eigenvalues --   -0.56216  -0.56215  -0.55885  -0.54686  -0.54080
  Beta  occ. eigenvalues --   -0.53290  -0.53087  -0.52800  -0.52772  -0.51503
  Beta  occ. eigenvalues --   -0.51226  -0.50506  -0.50478  -0.50281  -0.49855
  Beta  occ. eigenvalues --   -0.49801  -0.48987  -0.48745  -0.48450  -0.48421
  Beta  occ. eigenvalues --   -0.47574  -0.46340  -0.43800  -0.43038  -0.43027
  Beta  occ. eigenvalues --   -0.41762  -0.41755  -0.41038  -0.41034  -0.40998
  Beta  occ. eigenvalues --   -0.40684  -0.39918  -0.31921
  Beta virt. eigenvalues --   -0.23533  -0.09978  -0.07858  -0.07704  -0.06696
  Beta virt. eigenvalues --   -0.06680  -0.05872  -0.05476  -0.05292  -0.04580
  Beta virt. eigenvalues --   -0.04516  -0.02689  -0.01479   0.00911   0.01545

 Mulliken charges and spin densities:
               1          2
     1  C   -0.108682   0.028433
     2  C   -0.040591   0.042858
     3  C   -0.134401  -0.000411
     4  C   -0.108712   0.028444
     5  C    0.034862   0.057442
     6  C   -0.134393  -0.000414
     7  H    0.148943  -0.000246
     8  H    0.170085  -0.001231
     9  H    0.148943  -0.000247
    10  C    0.034954   0.057363
    11  C   -0.134423  -0.000370
    12  C   -0.134419  -0.000382
    13  C   -0.108354   0.028378
    14  C   -0.108471   0.028390
    15  C   -0.041200   0.042877
    16  H    0.148945  -0.000248
    17  H    0.148947  -0.000248
    18  H    0.170004  -0.001228
    19  H    0.170029  -0.001229
    20  H    0.170077  -0.001230
    21  N    0.040194   0.182108
    22  C   -0.063829  -0.014521
    23  C   -0.101077   0.047391
    24  C   -0.099190   0.047496
    25  C   -0.107815  -0.026355
    26  C   -0.108051  -0.028225
    27  C   -0.082187   0.061078
    28  H    0.167650  -0.001950
    29  H    0.157153  -0.002195
    30  H    0.132197   0.001248
    31  H    0.128989   0.001474
    32  H    0.133130  -0.003088
    33  C   -0.064238  -0.014508
    34  C   -0.100922   0.047343
    35  C   -0.098987   0.047450
    36  C   -0.107832  -0.026329
    37  C   -0.108054  -0.028197
    38  C   -0.082156   0.061010
    39  H    0.167623  -0.001949
    40  H    0.157094  -0.002192
    41  H    0.132196   0.001247
    42  H    0.128992   0.001473
    43  H    0.133133  -0.003085
    44  N    0.040196   0.182111
    45  C   -0.064223  -0.014511
    46  C   -0.100819   0.047341
    47  C   -0.099117   0.047442
    48  C   -0.107812  -0.026324
    49  C   -0.108055  -0.028193
    50  C   -0.082161   0.061000
    51  H    0.167579  -0.001949
    52  H    0.157142  -0.002192
    53  H    0.132195   0.001247
    54  H    0.128991   0.001472
    55  H    0.133132  -0.003084
    56  C   -0.064425  -0.014505
    57  C   -0.100751   0.047323
    58  C   -0.099005   0.047422
    59  C   -0.107825  -0.026313
    60  C   -0.108067  -0.028182
    61  C   -0.082145   0.060975
    62  H    0.167562  -0.001948
    63  H    0.157130  -0.002191
    64  H    0.132197   0.001247
    65  H    0.128992   0.001472
    66  H    0.133132  -0.003083
 Sum of Mulliken charges =   1.00000   1.00000

 Dipole moment (field-independent basis, Debye):
    X=             -0.0005    Y=              0.0003    Z=              0.0001  Tot=              0.0005
 Quadrupole moment (field-independent basis, Debye-Ang):
   XX=            -42.0760   YY=           -172.7957   ZZ=           -206.5113
   XY=              0.0062   XZ=             -0.0006   YZ=             -0.0034

 Normal termination of Gaussian 16 at Mon Jan 18 05:06:22 2021.
