 Gaussian 16, Revision A.03,
 Gaussian 16:  EM64L-G16RevA.03 25-Dec-2016

 ----------------------------------------------------------------------
 #P LC-wHPBE/TZVP iop(3/107=0178100000, 3/108=0178100000) scf=(conver=6
 ,fermi,ndamp=35,noincfock,novaracc,vshift=500,xqc)
 ----------------------------------------------------------------------

 ----------
 H28 C36 N2
 ----------
 Symbolic Z-matrix:
 Charge =  0 Multiplicity = 1

                         Standard orientation:
 ---------------------------------------------------------------------
 Center     Atomic      Atomic             Coordinates (Angstroms)
 Number     Number       Type             X           Y           Z
 ---------------------------------------------------------------------
      1          6           0       -2.849999   -1.125861   -0.415638
      2          6           0       -3.563139   -0.000026    0.000017
      3          6           0       -1.464492   -1.123667   -0.405534
      4          6           0       -2.850033    1.125752    0.415809
      5          6           0       -0.741288   -0.000047    0.000195
      6          6           0       -1.464504    1.123547    0.405879
      7          1           0       -0.931596   -2.005844   -0.756198
      8          1           0       -3.391048    2.006254    0.754990
      9          1           0       -0.931669    2.005728    0.756629
     10          6           0        0.741437   -0.000073    0.000217
     11          6           0        1.464635    1.123165   -0.406556
     12          6           0        1.464638   -1.123302    0.406976
     13          6           0        2.850149    1.125343   -0.416610
     14          6           0        2.850163   -1.125491    0.416935
     15          6           0        3.563257   -0.000095    0.000116
     16          1           0        0.931751    2.005025   -0.758038
     17          1           0        0.931783   -2.005140    0.758553
     18          1           0        3.391193    2.005527   -0.756576
     19          1           0        3.391211   -2.005669    0.756913
     20          1           0       -3.391005   -2.006357   -0.754845
     21          7           0        4.978430   -0.000102    0.000065
     22          6           0        5.687099   -1.154578   -0.414287
     23          6           0        6.831881   -1.566674    0.271150
     24          6           0        5.251323   -1.896933   -1.513908
     25          6           0        7.528311   -2.692826   -0.143324
     26          6           0        5.943392   -3.032223   -1.910440
     27          6           0        7.087522   -3.435368   -1.232277
     28          1           0        7.173684   -0.995181    1.131117
     29          1           0        4.363437   -1.577947   -2.055099
     30          1           0        8.419174   -2.999763    0.401550
     31          1           0        5.589860   -3.599797   -2.769285
     32          1           0        7.631852   -4.321852   -1.550225
     33          6           0        5.687025    1.154532    0.414292
     34          6           0        6.831191    1.567225   -0.271802
     35          6           0        5.251707    1.896381    1.514415
     36          6           0        7.527485    2.693516    0.142525
     37          6           0        5.943620    3.031828    1.910808
     38          6           0        7.087137    3.435581    1.231989
     39          1           0        7.172616    0.996083   -1.132151
     40          1           0        4.364291    1.576910    2.056093
     41          1           0        8.417875    3.000945   -0.402845
     42          1           0        5.590451    3.599029    2.770050
     43          1           0        7.631350    4.322181    1.549815
     44          7           0       -4.978266    0.000020   -0.000103
     45          6           0       -5.686990    1.154558   -0.414335
     46          6           0       -6.831289    1.566980    0.271699
     47          6           0       -5.251761    1.896543   -1.514410
     48          6           0       -7.527834    2.693112   -0.142653
     49          6           0       -5.943923    3.031822   -1.910819
     50          6           0       -7.087590    3.435293   -1.232069
     51          1           0       -7.172649    0.995729    1.132000
     52          1           0       -4.364233    1.577285   -2.056034
     53          1           0       -8.418333    3.000297    0.402674
     54          1           0       -5.590850    3.599137   -2.770027
     55          1           0       -7.631979    4.321768   -1.549941
     56          6           0       -5.687017   -1.154516    0.414141
     57          6           0       -6.831068   -1.567191   -0.272109
     58          6           0       -5.251977   -1.896199    1.514492
     59          6           0       -7.527566   -2.693348    0.142281
     60          6           0       -5.944079   -3.031486    1.910953
     61          6           0       -7.087509   -3.435246    1.231958
     62          1           0       -7.172277   -0.996155   -1.132614
     63          1           0       -4.364636   -1.576682    2.056275
     64          1           0       -8.417864   -3.000787   -0.403227
     65          1           0       -5.591165   -3.598572    2.770374
     66          1           0       -7.631874   -4.321730    1.549857
 ---------------------------------------------------------------------

 SCF Done:  E(RLC-wHPBE) =  -1497.20339790     A.U. after   14 cycles

 The electronic state is 1-A.
 Alpha  occ. eigenvalues --  -14.12072 -14.12071 -10.02948 -10.02947 -10.02947
 Alpha  occ. eigenvalues --  -10.02946 -10.02871 -10.02870  -9.99536  -9.99522
 Alpha  occ. eigenvalues --   -9.98928  -9.98928  -9.98927  -9.98926  -9.98926
 Alpha  occ. eigenvalues --   -9.98925  -9.98925  -9.98923  -9.98866  -9.98865
 Alpha  occ. eigenvalues --   -9.98864  -9.98862  -9.98671  -9.98670  -9.98670
 Alpha  occ. eigenvalues --   -9.98669  -9.98654  -9.98653  -9.98653  -9.98651
 Alpha  occ. eigenvalues --   -9.98647  -9.98647  -9.98646  -9.98645  -9.98459
 Alpha  occ. eigenvalues --   -9.98458  -9.98458  -9.98456  -0.99482  -0.99477
 Alpha  occ. eigenvalues --   -0.90038  -0.89003  -0.89002  -0.88712  -0.87525
 Alpha  occ. eigenvalues --   -0.86682  -0.81489  -0.79643  -0.79564  -0.78918
 Alpha  occ. eigenvalues --   -0.78367  -0.78260  -0.78040  -0.78020  -0.77749
 Alpha  occ. eigenvalues --   -0.77485  -0.75406  -0.73384  -0.68354  -0.67629
 Alpha  occ. eigenvalues --   -0.67034  -0.66097  -0.65586  -0.64670  -0.64638
 Alpha  occ. eigenvalues --   -0.64524  -0.63626  -0.63547  -0.61851  -0.61225
 Alpha  occ. eigenvalues --   -0.58901  -0.58722  -0.58496  -0.58256  -0.55924
 Alpha  occ. eigenvalues --   -0.54393  -0.53440  -0.53341  -0.52769  -0.52223
 Alpha  occ. eigenvalues --   -0.51505  -0.50497  -0.50232  -0.50005  -0.49528
 Alpha  occ. eigenvalues --   -0.49076  -0.49034  -0.48639  -0.48186  -0.48145
 Alpha  occ. eigenvalues --   -0.48039  -0.47381  -0.47190  -0.47124  -0.46980
 Alpha  occ. eigenvalues --   -0.46974  -0.46671  -0.45096  -0.43925  -0.43723
 Alpha  occ. eigenvalues --   -0.43429  -0.43374  -0.43319  -0.42991  -0.41658
 Alpha  occ. eigenvalues --   -0.41317  -0.40824  -0.40629  -0.40322  -0.40259
 Alpha  occ. eigenvalues --   -0.40003  -0.39406  -0.39176  -0.38994  -0.38812
 Alpha  occ. eigenvalues --   -0.37107  -0.36455  -0.33830  -0.32615  -0.32590
 Alpha  occ. eigenvalues --   -0.32555  -0.32549  -0.31692  -0.31445  -0.31389
 Alpha  occ. eigenvalues --   -0.31353  -0.30524  -0.25066  -0.23623
 Alpha virt. eigenvalues --    0.00700   0.02133   0.02188   0.02576   0.02578
 Alpha virt. eigenvalues --    0.04093   0.04395   0.04584   0.04620   0.04629
 Alpha virt. eigenvalues --    0.06800   0.08551   0.10048   0.10264   0.11038

 Mulliken charges:
               1
     1  C   -0.121085
     2  C   -0.036866
     3  C   -0.150596
     4  C   -0.121111
     5  C    0.034637
     6  C   -0.150585
     7  H    0.123217
     8  H    0.143338
     9  H    0.123214
    10  C    0.034728
    11  C   -0.150610
    12  C   -0.150602
    13  C   -0.120760
    14  C   -0.120865
    15  C   -0.037464
    16  H    0.123218
    17  H    0.123219
    18  H    0.143262
    19  H    0.143284
    20  H    0.143331
    21  N   -0.004897
    22  C   -0.053418
    23  C   -0.113501
    24  C   -0.107510
    25  C   -0.110348
    26  C   -0.110327
    27  C   -0.100768
    28  H    0.147876
    29  H    0.146178
    30  H    0.103976
    31  H    0.103940
    32  H    0.102657
    33  C   -0.053825
    34  C   -0.113326
    35  C   -0.107288
    36  C   -0.110365
    37  C   -0.110330
    38  C   -0.100723
    39  H    0.147856
    40  H    0.146118
    41  H    0.103983
    42  H    0.103946
    43  H    0.102668
    44  N   -0.004904
    45  C   -0.053801
    46  C   -0.113227
    47  C   -0.107414
    48  C   -0.110348
    49  C   -0.110331
    50  C   -0.100730
    51  H    0.147813
    52  H    0.146163
    53  H    0.103984
    54  H    0.103948
    55  H    0.102670
    56  C   -0.054001
    57  C   -0.113154
    58  C   -0.107293
    59  C   -0.110359
    60  C   -0.110344
    61  C   -0.100709
    62  H    0.147797
    63  H    0.146153
    64  H    0.103987
    65  H    0.103951
    66  H    0.102673
 Sum of Mulliken charges =  -0.00000

 Dipole moment (field-independent basis, Debye):
    X=             -0.0038    Y=              0.0007    Z=              0.0005  Tot=              0.0039
 Quadrupole moment (field-independent basis, Debye-Ang):
   XX=           -204.8116   YY=           -207.0305   ZZ=           -218.0426
   XY=              0.0143   XZ=              0.0007   YZ=             -0.0051

 1\1\GINC-CASCADEB019\SP\RLC-wHPBE\TZVP\C36H28N2\RDU230\18-Jan-2021\0\\
 #P LC-wHPBE/TZVP iop(3/107=0178100000, 3/108=0178100000) scf=(conver=6
 ,fermi,ndamp=35,noincfock,novaracc,vshift=500,xqc)\\H28 C36 N2\\0,1\C,
 0,2.849999,-1.125861,0.415638\C,0,3.563139,-0.000026,-0.000017\C,0,1.4
 64492,-1.123667,0.405534\C,0,2.850033,1.125752,-0.415809\C,0,0.741288,
 -0.000047,-0.000195\C,0,1.464504,1.123547,-0.405879\H,0,0.931596,-2.00
 5844,0.756198\H,0,3.391048,2.006254,-0.75499\H,0,0.931669,2.005728,-0.
 756629\C,0,-0.741437,-0.000073,-0.000217\C,0,-1.464635,1.123165,0.4065

 Normal termination of Gaussian 16 at Mon Jan 18 05:21:34 2021.
