 Gaussian 16, Revision A.03,
 Gaussian 16:  EM64L-G16RevA.03 25-Dec-2016

 ----------------------------------------------------------------------
 #P LC-wHPBE/TZVP iop(3/107=0156200000, 3/108=0156200000) scf=(conver=6
 ,fermi,ndamp=35,noincfock,novaracc,vshift=500,xqc)
 ----------------------------------------------------------------------

 ----------
 H28 C36 N2
 ----------
 Symbolic Z-matrix:
 Charge =  0 Multiplicity = 1

                         Standard orientation:
 ---------------------------------------------------------------------
 Center     Atomic      Atomic             Coordinates (Angstroms)
 Number     Number       Type             X           Y           Z
 ---------------------------------------------------------------------
      1          6           0       -2.849999   -1.125861   -0.415638
      2          6           0       -3.563139   -0.000026    0.000017
      3          6           0       -1.464492   -1.123667   -0.405534
      4          6           0       -2.850033    1.125752    0.415809
      5          6           0       -0.741288   -0.000047    0.000195
      6          6           0       -1.464504    1.123547    0.405879
      7          1           0       -0.931596   -2.005844   -0.756198
      8          1           0       -3.391048    2.006254    0.754990
      9          1           0       -0.931669    2.005728    0.756629
     10          6           0        0.741437   -0.000073    0.000217
     11          6           0        1.464635    1.123165   -0.406556
     12          6           0        1.464638   -1.123302    0.406976
     13          6           0        2.850149    1.125343   -0.416610
     14          6           0        2.850163   -1.125491    0.416935
     15          6           0        3.563257   -0.000095    0.000116
     16          1           0        0.931751    2.005025   -0.758038
     17          1           0        0.931783   -2.005140    0.758553
     18          1           0        3.391193    2.005527   -0.756576
     19          1           0        3.391211   -2.005669    0.756913
     20          1           0       -3.391005   -2.006357   -0.754845
     21          7           0        4.978430   -0.000102    0.000065
     22          6           0        5.687099   -1.154578   -0.414287
     23          6           0        6.831881   -1.566674    0.271150
     24          6           0        5.251323   -1.896933   -1.513908
     25          6           0        7.528311   -2.692826   -0.143324
     26          6           0        5.943392   -3.032223   -1.910440
     27          6           0        7.087522   -3.435368   -1.232277
     28          1           0        7.173684   -0.995181    1.131117
     29          1           0        4.363437   -1.577947   -2.055099
     30          1           0        8.419174   -2.999763    0.401550
     31          1           0        5.589860   -3.599797   -2.769285
     32          1           0        7.631852   -4.321852   -1.550225
     33          6           0        5.687025    1.154532    0.414292
     34          6           0        6.831191    1.567225   -0.271802
     35          6           0        5.251707    1.896381    1.514415
     36          6           0        7.527485    2.693516    0.142525
     37          6           0        5.943620    3.031828    1.910808
     38          6           0        7.087137    3.435581    1.231989
     39          1           0        7.172616    0.996083   -1.132151
     40          1           0        4.364291    1.576910    2.056093
     41          1           0        8.417875    3.000945   -0.402845
     42          1           0        5.590451    3.599029    2.770050
     43          1           0        7.631350    4.322181    1.549815
     44          7           0       -4.978266    0.000020   -0.000103
     45          6           0       -5.686990    1.154558   -0.414335
     46          6           0       -6.831289    1.566980    0.271699
     47          6           0       -5.251761    1.896543   -1.514410
     48          6           0       -7.527834    2.693112   -0.142653
     49          6           0       -5.943923    3.031822   -1.910819
     50          6           0       -7.087590    3.435293   -1.232069
     51          1           0       -7.172649    0.995729    1.132000
     52          1           0       -4.364233    1.577285   -2.056034
     53          1           0       -8.418333    3.000297    0.402674
     54          1           0       -5.590850    3.599137   -2.770027
     55          1           0       -7.631979    4.321768   -1.549941
     56          6           0       -5.687017   -1.154516    0.414141
     57          6           0       -6.831068   -1.567191   -0.272109
     58          6           0       -5.251977   -1.896199    1.514492
     59          6           0       -7.527566   -2.693348    0.142281
     60          6           0       -5.944079   -3.031486    1.910953
     61          6           0       -7.087509   -3.435246    1.231958
     62          1           0       -7.172277   -0.996155   -1.132614
     63          1           0       -4.364636   -1.576682    2.056275
     64          1           0       -8.417864   -3.000787   -0.403227
     65          1           0       -5.591165   -3.598572    2.770374
     66          1           0       -7.631874   -4.321730    1.549857
 ---------------------------------------------------------------------

 SCF Done:  E(RLC-wHPBE) =  -1497.15792080     A.U. after   13 cycles

 The electronic state is 1-A.
 Alpha  occ. eigenvalues --  -14.10937 -14.10936 -10.01702 -10.01701 -10.01701
 Alpha  occ. eigenvalues --  -10.01700 -10.01621 -10.01619  -9.98297  -9.98283
 Alpha  occ. eigenvalues --   -9.97693  -9.97692  -9.97691  -9.97690  -9.97690
 Alpha  occ. eigenvalues --   -9.97690  -9.97689  -9.97688  -9.97628  -9.97627
 Alpha  occ. eigenvalues --   -9.97626  -9.97624  -9.97444  -9.97443  -9.97443
 Alpha  occ. eigenvalues --   -9.97442  -9.97429  -9.97428  -9.97427  -9.97426
 Alpha  occ. eigenvalues --   -9.97424  -9.97423  -9.97423  -9.97421  -9.97225
 Alpha  occ. eigenvalues --   -9.97225  -9.97224  -9.97222  -0.98218  -0.98214
 Alpha  occ. eigenvalues --   -0.88728  -0.87701  -0.87700  -0.87411  -0.86232
 Alpha  occ. eigenvalues --   -0.85394  -0.80220  -0.78382  -0.78307  -0.77660
 Alpha  occ. eigenvalues --   -0.77106  -0.77001  -0.76784  -0.76765  -0.76494
 Alpha  occ. eigenvalues --   -0.76240  -0.74176  -0.72170  -0.67179  -0.66448
 Alpha  occ. eigenvalues --   -0.65869  -0.64931  -0.64416  -0.63507  -0.63474
 Alpha  occ. eigenvalues --   -0.63363  -0.62471  -0.62399  -0.60711  -0.60084
 Alpha  occ. eigenvalues --   -0.57772  -0.57603  -0.57380  -0.57152  -0.54818
 Alpha  occ. eigenvalues --   -0.53309  -0.52381  -0.52271  -0.51714  -0.51159
 Alpha  occ. eigenvalues --   -0.50439  -0.49453  -0.49185  -0.48973  -0.48490
 Alpha  occ. eigenvalues --   -0.48036  -0.48001  -0.47612  -0.47174  -0.47138
 Alpha  occ. eigenvalues --   -0.47019  -0.46361  -0.46175  -0.46113  -0.45975
 Alpha  occ. eigenvalues --   -0.45970  -0.45666  -0.44128  -0.42849  -0.42674
 Alpha  occ. eigenvalues --   -0.42387  -0.42296  -0.42247  -0.41923  -0.40718
 Alpha  occ. eigenvalues --   -0.40384  -0.39891  -0.39706  -0.39381  -0.39307
 Alpha  occ. eigenvalues --   -0.39088  -0.38493  -0.38265  -0.38090  -0.37898
 Alpha  occ. eigenvalues --   -0.36192  -0.35531  -0.33008  -0.31825  -0.31800
 Alpha  occ. eigenvalues --   -0.31760  -0.31758  -0.30916  -0.30669  -0.30617
 Alpha  occ. eigenvalues --   -0.30575  -0.29789  -0.24426  -0.23013
 Alpha virt. eigenvalues --    0.00136   0.01502   0.01559   0.01958   0.01960
 Alpha virt. eigenvalues --    0.03453   0.03717   0.03902   0.03943   0.03953
 Alpha virt. eigenvalues --    0.06118   0.07831   0.09417   0.09631   0.10402

 Mulliken charges:
               1
     1  C   -0.121064
     2  C   -0.035756
     3  C   -0.147985
     4  C   -0.121090
     5  C    0.035065
     6  C   -0.147974
     7  H    0.121233
     8  H    0.141059
     9  H    0.121231
    10  C    0.035156
    11  C   -0.147997
    12  C   -0.147989
    13  C   -0.120741
    14  C   -0.120850
    15  C   -0.036351
    16  H    0.121234
    17  H    0.121236
    18  H    0.140984
    19  H    0.141006
    20  H    0.141052
    21  N    0.001626
    22  C   -0.055120
    23  C   -0.112289
    24  C   -0.106441
    25  C   -0.108478
    26  C   -0.108510
    27  C   -0.098697
    28  H    0.145707
    29  H    0.143979
    30  H    0.102544
    31  H    0.102508
    32  H    0.101152
    33  C   -0.055525
    34  C   -0.112118
    35  C   -0.106221
    36  C   -0.108493
    37  C   -0.108510
    38  C   -0.098653
    39  H    0.145687
    40  H    0.143920
    41  H    0.102550
    42  H    0.102514
    43  H    0.101163
    44  N    0.001619
    45  C   -0.055502
    46  C   -0.112016
    47  C   -0.106349
    48  C   -0.108475
    49  C   -0.108512
    50  C   -0.098660
    51  H    0.145644
    52  H    0.143965
    53  H    0.102551
    54  H    0.102516
    55  H    0.101165
    56  C   -0.055701
    57  C   -0.111945
    58  C   -0.106229
    59  C   -0.108486
    60  C   -0.108524
    61  C   -0.098639
    62  H    0.145628
    63  H    0.143955
    64  H    0.102555
    65  H    0.102519
    66  H    0.101168
 Sum of Mulliken charges =  -0.00000

 Dipole moment (field-independent basis, Debye):
    X=             -0.0038    Y=              0.0007    Z=              0.0005  Tot=              0.0039
 Quadrupole moment (field-independent basis, Debye-Ang):
   XX=           -205.0521   YY=           -207.2953   ZZ=           -218.2144
   XY=              0.0143   XZ=              0.0007   YZ=             -0.0051

 1\1\GINC-CASCADEB019\SP\RLC-wHPBE\TZVP\C36H28N2\RDU230\17-Jan-2021\0\\
 #P LC-wHPBE/TZVP iop(3/107=0156200000, 3/108=0156200000) scf=(conver=6
 ,fermi,ndamp=35,noincfock,novaracc,vshift=500,xqc)\\H28 C36 N2\\0,1\C,
 0,2.849999,-1.125861,0.415638\C,0,3.563139,-0.000026,-0.000017\C,0,1.4
 64492,-1.123667,0.405534\C,0,2.850033,1.125752,-0.415809\C,0,0.741288,
 -0.000047,-0.000195\C,0,1.464504,1.123547,-0.405879\H,0,0.931596,-2.00
 5844,0.756198\H,0,3.391048,2.006254,-0.75499\H,0,0.931669,2.005728,-0.
 756629\C,0,-0.741437,-0.000073,-0.000217\C,0,-1.464635,1.123165,0.4065

 Normal termination of Gaussian 16 at Sun Jan 17 23:22:54 2021.
