 Gaussian 16, Revision A.03,
 Gaussian 16:  EM64L-G16RevA.03 25-Dec-2016

 ----------------------------------------------------------------------
 #P LC-wHPBE/TZVP iop(3/107=0174800000, 3/108=0174800000) scf=(conver=6
 ,fermi,ndamp=35,noincfock,novaracc,vshift=500,xqc)
 ----------------------------------------------------------------------

 ----------
 H28 C36 N2
 ----------
 Symbolic Z-matrix:
 Charge =  0 Multiplicity = 1

                         Standard orientation:
 ---------------------------------------------------------------------
 Center     Atomic      Atomic             Coordinates (Angstroms)
 Number     Number       Type             X           Y           Z
 ---------------------------------------------------------------------
      1          6           0       -2.849999   -1.125861   -0.415638
      2          6           0       -3.563139   -0.000026    0.000017
      3          6           0       -1.464492   -1.123667   -0.405534
      4          6           0       -2.850033    1.125752    0.415809
      5          6           0       -0.741288   -0.000047    0.000195
      6          6           0       -1.464504    1.123547    0.405879
      7          1           0       -0.931596   -2.005844   -0.756198
      8          1           0       -3.391048    2.006254    0.754990
      9          1           0       -0.931669    2.005728    0.756629
     10          6           0        0.741437   -0.000073    0.000217
     11          6           0        1.464635    1.123165   -0.406556
     12          6           0        1.464638   -1.123302    0.406976
     13          6           0        2.850149    1.125343   -0.416610
     14          6           0        2.850163   -1.125491    0.416935
     15          6           0        3.563257   -0.000095    0.000116
     16          1           0        0.931751    2.005025   -0.758038
     17          1           0        0.931783   -2.005140    0.758553
     18          1           0        3.391193    2.005527   -0.756576
     19          1           0        3.391211   -2.005669    0.756913
     20          1           0       -3.391005   -2.006357   -0.754845
     21          7           0        4.978430   -0.000102    0.000065
     22          6           0        5.687099   -1.154578   -0.414287
     23          6           0        6.831881   -1.566674    0.271150
     24          6           0        5.251323   -1.896933   -1.513908
     25          6           0        7.528311   -2.692826   -0.143324
     26          6           0        5.943392   -3.032223   -1.910440
     27          6           0        7.087522   -3.435368   -1.232277
     28          1           0        7.173684   -0.995181    1.131117
     29          1           0        4.363437   -1.577947   -2.055099
     30          1           0        8.419174   -2.999763    0.401550
     31          1           0        5.589860   -3.599797   -2.769285
     32          1           0        7.631852   -4.321852   -1.550225
     33          6           0        5.687025    1.154532    0.414292
     34          6           0        6.831191    1.567225   -0.271802
     35          6           0        5.251707    1.896381    1.514415
     36          6           0        7.527485    2.693516    0.142525
     37          6           0        5.943620    3.031828    1.910808
     38          6           0        7.087137    3.435581    1.231989
     39          1           0        7.172616    0.996083   -1.132151
     40          1           0        4.364291    1.576910    2.056093
     41          1           0        8.417875    3.000945   -0.402845
     42          1           0        5.590451    3.599029    2.770050
     43          1           0        7.631350    4.322181    1.549815
     44          7           0       -4.978266    0.000020   -0.000103
     45          6           0       -5.686990    1.154558   -0.414335
     46          6           0       -6.831289    1.566980    0.271699
     47          6           0       -5.251761    1.896543   -1.514410
     48          6           0       -7.527834    2.693112   -0.142653
     49          6           0       -5.943923    3.031822   -1.910819
     50          6           0       -7.087590    3.435293   -1.232069
     51          1           0       -7.172649    0.995729    1.132000
     52          1           0       -4.364233    1.577285   -2.056034
     53          1           0       -8.418333    3.000297    0.402674
     54          1           0       -5.590850    3.599137   -2.770027
     55          1           0       -7.631979    4.321768   -1.549941
     56          6           0       -5.687017   -1.154516    0.414141
     57          6           0       -6.831068   -1.567191   -0.272109
     58          6           0       -5.251977   -1.896199    1.514492
     59          6           0       -7.527566   -2.693348    0.142281
     60          6           0       -5.944079   -3.031486    1.910953
     61          6           0       -7.087509   -3.435246    1.231958
     62          1           0       -7.172277   -0.996155   -1.132614
     63          1           0       -4.364636   -1.576682    2.056275
     64          1           0       -8.417864   -3.000787   -0.403227
     65          1           0       -5.591165   -3.598572    2.770374
     66          1           0       -7.631874   -4.321730    1.549857
 ---------------------------------------------------------------------

 SCF Done:  E(RLC-wHPBE) =  -1497.19657261     A.U. after   13 cycles

 The electronic state is 1-A.
 Alpha  occ. eigenvalues --  -14.11901 -14.11901 -10.02760 -10.02760 -10.02759
 Alpha  occ. eigenvalues --  -10.02758 -10.02681 -10.02680  -9.99350  -9.99337
 Alpha  occ. eigenvalues --   -9.98741  -9.98741  -9.98740  -9.98739  -9.98739
 Alpha  occ. eigenvalues --   -9.98739  -9.98738  -9.98737  -9.98680  -9.98679
 Alpha  occ. eigenvalues --   -9.98678  -9.98676  -9.98487  -9.98486  -9.98486
 Alpha  occ. eigenvalues --   -9.98485  -9.98469  -9.98468  -9.98468  -9.98466
 Alpha  occ. eigenvalues --   -9.98464  -9.98464  -9.98463  -9.98461  -9.98272
 Alpha  occ. eigenvalues --   -9.98272  -9.98271  -9.98269  -0.99291  -0.99287
 Alpha  occ. eigenvalues --   -0.89841  -0.88807  -0.88805  -0.88516  -0.87330
 Alpha  occ. eigenvalues --   -0.86488  -0.81298  -0.79453  -0.79375  -0.78729
 Alpha  occ. eigenvalues --   -0.78177  -0.78070  -0.77851  -0.77831  -0.77561
 Alpha  occ. eigenvalues --   -0.77298  -0.75221  -0.73202  -0.68178  -0.67453
 Alpha  occ. eigenvalues --   -0.66860  -0.65923  -0.65411  -0.64497  -0.64465
 Alpha  occ. eigenvalues --   -0.64350  -0.63454  -0.63376  -0.61682  -0.61056
 Alpha  occ. eigenvalues --   -0.58733  -0.58555  -0.58331  -0.58092  -0.55760
 Alpha  occ. eigenvalues --   -0.54232  -0.53283  -0.53183  -0.52612  -0.52065
 Alpha  occ. eigenvalues --   -0.51347  -0.50343  -0.50077  -0.49852  -0.49375
 Alpha  occ. eigenvalues --   -0.48922  -0.48881  -0.48488  -0.48036  -0.47996
 Alpha  occ. eigenvalues --   -0.47888  -0.47231  -0.47040  -0.46975  -0.46832
 Alpha  occ. eigenvalues --   -0.46826  -0.46523  -0.44953  -0.43767  -0.43568
 Alpha  occ. eigenvalues --   -0.43275  -0.43215  -0.43161  -0.42833  -0.41519
 Alpha  occ. eigenvalues --   -0.41180  -0.40687  -0.40493  -0.40183  -0.40119
 Alpha  occ. eigenvalues --   -0.39869  -0.39272  -0.39042  -0.38862  -0.38678
 Alpha  occ. eigenvalues --   -0.36973  -0.36320  -0.33711  -0.32501  -0.32476
 Alpha  occ. eigenvalues --   -0.32441  -0.32435  -0.31580  -0.31333  -0.31277
 Alpha  occ. eigenvalues --   -0.31241  -0.30418  -0.24974  -0.23535
 Alpha virt. eigenvalues --    0.00620   0.02043   0.02099   0.02488   0.02490
 Alpha virt. eigenvalues --    0.04002   0.04298   0.04487   0.04524   0.04533
 Alpha virt. eigenvalues --    0.06703   0.08448   0.09958   0.10174   0.10948

 Mulliken charges:
               1
     1  C   -0.121076
     2  C   -0.036650
     3  C   -0.150191
     4  C   -0.121103
     5  C    0.034714
     6  C   -0.150180
     7  H    0.122885
     8  H    0.142958
     9  H    0.122883
    10  C    0.034806
    11  C   -0.150205
    12  C   -0.150197
    13  C   -0.120751
    14  C   -0.120857
    15  C   -0.037248
    16  H    0.122886
    17  H    0.122888
    18  H    0.142882
    19  H    0.142904
    20  H    0.142951
    21  N   -0.003816
    22  C   -0.053652
    23  C   -0.113301
    24  C   -0.107319
    25  C   -0.110049
    26  C   -0.110037
    27  C   -0.100424
    28  H    0.147518
    29  H    0.145814
    30  H    0.103729
    31  H    0.103693
    32  H    0.102395
    33  C   -0.054059
    34  C   -0.113127
    35  C   -0.107097
    36  C   -0.110065
    37  C   -0.110040
    38  C   -0.100379
    39  H    0.147498
    40  H    0.145754
    41  H    0.103736
    42  H    0.103699
    43  H    0.102406
    44  N   -0.003823
    45  C   -0.054035
    46  C   -0.113028
    47  C   -0.107224
    48  C   -0.110048
    49  C   -0.110041
    50  C   -0.100386
    51  H    0.147455
    52  H    0.145799
    53  H    0.103737
    54  H    0.103701
    55  H    0.102408
    56  C   -0.054234
    57  C   -0.112955
    58  C   -0.107103
    59  C   -0.110059
    60  C   -0.110054
    61  C   -0.100365
    62  H    0.147439
    63  H    0.145789
    64  H    0.103740
    65  H    0.103704
    66  H    0.102411
 Sum of Mulliken charges =  -0.00000

 Dipole moment (field-independent basis, Debye):
    X=             -0.0038    Y=              0.0007    Z=              0.0005  Tot=              0.0039
 Quadrupole moment (field-independent basis, Debye-Ang):
   XX=           -204.8500   YY=           -207.0731   ZZ=           -218.0692
   XY=              0.0143   XZ=              0.0007   YZ=             -0.0051

 1\1\GINC-CASCADEB019\SP\RLC-wHPBE\TZVP\C36H28N2\RDU230\18-Jan-2021\0\\
 #P LC-wHPBE/TZVP iop(3/107=0174800000, 3/108=0174800000) scf=(conver=6
 ,fermi,ndamp=35,noincfock,novaracc,vshift=500,xqc)\\H28 C36 N2\\0,1\C,
 0,2.849999,-1.125861,0.415638\C,0,3.563139,-0.000026,-0.000017\C,0,1.4
 64492,-1.123667,0.405534\C,0,2.850033,1.125752,-0.415809\C,0,0.741288,
 -0.000047,-0.000195\C,0,1.464504,1.123547,-0.405879\H,0,0.931596,-2.00
 5844,0.756198\H,0,3.391048,2.006254,-0.75499\H,0,0.931669,2.005728,-0.
 756629\C,0,-0.741437,-0.000073,-0.000217\C,0,-1.464635,1.123165,0.4065

 Normal termination of Gaussian 16 at Mon Jan 18 02:20:17 2021.
