 Gaussian 16, Revision A.03,
 Gaussian 16:  EM64L-G16RevA.03 25-Dec-2016

 ----------------------------------------------------------------------
 #P LC-wHPBE/TZVP iop(3/107=0221900000, 3/108=0221900000) scf=(conver=6
 ,fermi,ndamp=35,noincfock,novaracc,vshift=500,xqc)
 ----------------------------------------------------------------------

 ----------
 H28 C36 N2
 ----------
 Symbolic Z-matrix:
 Charge =  1 Multiplicity = 2

                         Standard orientation:
 ---------------------------------------------------------------------
 Center     Atomic      Atomic             Coordinates (Angstroms)
 Number     Number       Type             X           Y           Z
 ---------------------------------------------------------------------
      1          6           0       -2.849999   -1.125861   -0.415638
      2          6           0       -3.563139   -0.000026    0.000017
      3          6           0       -1.464492   -1.123667   -0.405534
      4          6           0       -2.850033    1.125752    0.415809
      5          6           0       -0.741288   -0.000047    0.000195
      6          6           0       -1.464504    1.123547    0.405879
      7          1           0       -0.931596   -2.005844   -0.756198
      8          1           0       -3.391048    2.006254    0.754990
      9          1           0       -0.931669    2.005728    0.756629
     10          6           0        0.741437   -0.000073    0.000217
     11          6           0        1.464635    1.123165   -0.406556
     12          6           0        1.464638   -1.123302    0.406976
     13          6           0        2.850149    1.125343   -0.416610
     14          6           0        2.850163   -1.125491    0.416935
     15          6           0        3.563257   -0.000095    0.000116
     16          1           0        0.931751    2.005025   -0.758038
     17          1           0        0.931783   -2.005140    0.758553
     18          1           0        3.391193    2.005527   -0.756576
     19          1           0        3.391211   -2.005669    0.756913
     20          1           0       -3.391005   -2.006357   -0.754845
     21          7           0        4.978430   -0.000102    0.000065
     22          6           0        5.687099   -1.154578   -0.414287
     23          6           0        6.831881   -1.566674    0.271150
     24          6           0        5.251323   -1.896933   -1.513908
     25          6           0        7.528311   -2.692826   -0.143324
     26          6           0        5.943392   -3.032223   -1.910440
     27          6           0        7.087522   -3.435368   -1.232277
     28          1           0        7.173684   -0.995181    1.131117
     29          1           0        4.363437   -1.577947   -2.055099
     30          1           0        8.419174   -2.999763    0.401550
     31          1           0        5.589860   -3.599797   -2.769285
     32          1           0        7.631852   -4.321852   -1.550225
     33          6           0        5.687025    1.154532    0.414292
     34          6           0        6.831191    1.567225   -0.271802
     35          6           0        5.251707    1.896381    1.514415
     36          6           0        7.527485    2.693516    0.142525
     37          6           0        5.943620    3.031828    1.910808
     38          6           0        7.087137    3.435581    1.231989
     39          1           0        7.172616    0.996083   -1.132151
     40          1           0        4.364291    1.576910    2.056093
     41          1           0        8.417875    3.000945   -0.402845
     42          1           0        5.590451    3.599029    2.770050
     43          1           0        7.631350    4.322181    1.549815
     44          7           0       -4.978266    0.000020   -0.000103
     45          6           0       -5.686990    1.154558   -0.414335
     46          6           0       -6.831289    1.566980    0.271699
     47          6           0       -5.251761    1.896543   -1.514410
     48          6           0       -7.527834    2.693112   -0.142653
     49          6           0       -5.943923    3.031822   -1.910819
     50          6           0       -7.087590    3.435293   -1.232069
     51          1           0       -7.172649    0.995729    1.132000
     52          1           0       -4.364233    1.577285   -2.056034
     53          1           0       -8.418333    3.000297    0.402674
     54          1           0       -5.590850    3.599137   -2.770027
     55          1           0       -7.631979    4.321768   -1.549941
     56          6           0       -5.687017   -1.154516    0.414141
     57          6           0       -6.831068   -1.567191   -0.272109
     58          6           0       -5.251977   -1.896199    1.514492
     59          6           0       -7.527566   -2.693348    0.142281
     60          6           0       -5.944079   -3.031486    1.910953
     61          6           0       -7.087509   -3.435246    1.231958
     62          1           0       -7.172277   -0.996155   -1.132614
     63          1           0       -4.364636   -1.576682    2.056275
     64          1           0       -8.417864   -3.000787   -0.403227
     65          1           0       -5.591165   -3.598572    2.770374
     66          1           0       -7.631874   -4.321730    1.549857
 ---------------------------------------------------------------------

 SCF Done:  E(ULC-wHPBE) =  -1497.04894501     A.U. after   23 cycles

 The electronic state is 2-A.
 Alpha  occ. eigenvalues --  -14.27843 -14.27842 -10.17378 -10.17378 -10.15486
 Alpha  occ. eigenvalues --  -10.15485 -10.15484 -10.15483 -10.14004 -10.13990
 Alpha  occ. eigenvalues --  -10.12684 -10.12683 -10.12680 -10.12679 -10.12627
 Alpha  occ. eigenvalues --  -10.12627 -10.12626 -10.12626 -10.11112 -10.11112
 Alpha  occ. eigenvalues --  -10.11112 -10.11111 -10.10933 -10.10933 -10.10933
 Alpha  occ. eigenvalues --  -10.10932 -10.10520 -10.10520 -10.10519 -10.10519
 Alpha  occ. eigenvalues --  -10.10444 -10.10444 -10.10443 -10.10442 -10.10339
 Alpha  occ. eigenvalues --  -10.10339 -10.10338 -10.10337  -1.13983  -1.13979
 Alpha  occ. eigenvalues --   -1.04189  -1.02387  -1.01311  -1.01310  -1.00030
 Alpha  occ. eigenvalues --   -0.99498  -0.95352  -0.92724  -0.92335  -0.91843
 Alpha  occ. eigenvalues --   -0.91344  -0.91034  -0.90297  -0.89943  -0.89942
 Alpha  occ. eigenvalues --   -0.89872  -0.87991  -0.86362  -0.81423  -0.80835
 Alpha  occ. eigenvalues --   -0.79592  -0.78649  -0.78200  -0.77054  -0.76688
 Alpha  occ. eigenvalues --   -0.76342  -0.76196  -0.75871  -0.73993  -0.73673
 Alpha  occ. eigenvalues --   -0.71671  -0.70829  -0.70640  -0.70389  -0.68525
 Alpha  occ. eigenvalues --   -0.66192  -0.65991  -0.65445  -0.64584  -0.64257
 Alpha  occ. eigenvalues --   -0.64159  -0.62630  -0.62422  -0.61890  -0.61713
 Alpha  occ. eigenvalues --   -0.61621  -0.60853  -0.60259  -0.59905  -0.59851
 Alpha  occ. eigenvalues --   -0.59684  -0.59632  -0.59622  -0.58513  -0.58358
 Alpha  occ. eigenvalues --   -0.58129  -0.58128  -0.57868  -0.57004  -0.56453
 Alpha  occ. eigenvalues --   -0.55545  -0.55322  -0.54978  -0.54946  -0.53361
 Alpha  occ. eigenvalues --   -0.53205  -0.52735  -0.52283  -0.52064  -0.51676
 Alpha  occ. eigenvalues --   -0.51650  -0.50926  -0.50584  -0.50170  -0.50141
 Alpha  occ. eigenvalues --   -0.49590  -0.48687  -0.46106  -0.44660  -0.44620
 Alpha  occ. eigenvalues --   -0.43487  -0.43481  -0.43192  -0.42652  -0.42635
 Alpha  occ. eigenvalues --   -0.42167  -0.41999  -0.37441  -0.36236
 Alpha virt. eigenvalues --   -0.09514  -0.07143  -0.07016  -0.05937  -0.05926
 Alpha virt. eigenvalues --   -0.05319  -0.04599  -0.04479  -0.03626  -0.03595
 Alpha virt. eigenvalues --   -0.02116  -0.00958   0.01860   0.02523   0.03565

  Beta  occ. eigenvalues --  -14.27426 -14.27425 -10.17329 -10.17329 -10.15525
  Beta  occ. eigenvalues --  -10.15524 -10.15524 -10.15522 -10.13915 -10.13901
  Beta  occ. eigenvalues --  -10.12671 -10.12670 -10.12668 -10.12667 -10.12582
  Beta  occ. eigenvalues --  -10.12582 -10.12582 -10.12581 -10.11040 -10.11040
  Beta  occ. eigenvalues --  -10.11039 -10.11039 -10.10866 -10.10866 -10.10865
  Beta  occ. eigenvalues --  -10.10865 -10.10553 -10.10552 -10.10552 -10.10551
  Beta  occ. eigenvalues --  -10.10473 -10.10473 -10.10472 -10.10471 -10.10267
  Beta  occ. eigenvalues --  -10.10266 -10.10265 -10.10265  -1.13472  -1.13467
  Beta  occ. eigenvalues --   -1.04005  -1.02217  -1.01228  -1.01228  -0.99899
  Beta  occ. eigenvalues --   -0.99347  -0.95113  -0.92653  -0.92257  -0.91677
  Beta  occ. eigenvalues --   -0.91262  -0.90956  -0.90225  -0.89879  -0.89878
  Beta  occ. eigenvalues --   -0.89778  -0.87790  -0.86020  -0.81314  -0.80682
  Beta  occ. eigenvalues --   -0.79449  -0.78523  -0.78058  -0.76892  -0.76631
  Beta  occ. eigenvalues --   -0.76256  -0.76113  -0.75798  -0.73902  -0.73587
  Beta  occ. eigenvalues --   -0.71599  -0.70734  -0.70566  -0.70308  -0.68432
  Beta  occ. eigenvalues --   -0.66018  -0.65898  -0.65350  -0.64449  -0.64059
  Beta  occ. eigenvalues --   -0.63811  -0.62547  -0.62275  -0.61806  -0.61620
  Beta  occ. eigenvalues --   -0.61580  -0.60779  -0.60211  -0.59869  -0.59751
  Beta  occ. eigenvalues --   -0.59632  -0.59563  -0.59538  -0.58431  -0.58312
  Beta  occ. eigenvalues --   -0.58092  -0.58091  -0.57765  -0.56739  -0.56058
  Beta  occ. eigenvalues --   -0.55244  -0.55053  -0.54763  -0.54733  -0.53302
  Beta  occ. eigenvalues --   -0.53047  -0.52255  -0.52228  -0.52011  -0.51565
  Beta  occ. eigenvalues --   -0.51502  -0.50674  -0.50443  -0.50122  -0.50093
  Beta  occ. eigenvalues --   -0.49259  -0.47920  -0.45092  -0.44545  -0.44522
  Beta  occ. eigenvalues --   -0.43066  -0.43062  -0.42325  -0.42295  -0.42291
  Beta  occ. eigenvalues --   -0.41987  -0.40935  -0.32505
  Beta virt. eigenvalues --   -0.23587  -0.09213  -0.06835  -0.06670  -0.05644
  Beta virt. eigenvalues --   -0.05627  -0.04832  -0.04348  -0.04150  -0.03409
  Beta virt. eigenvalues --   -0.03345  -0.01466  -0.00192   0.01895   0.02563

 Mulliken charges and spin densities:
               1          2
     1  C   -0.109744   0.026825
     2  C   -0.044208   0.048679
     3  C   -0.138621  -0.000725
     4  C   -0.109773   0.026836
     5  C    0.032245   0.060652
     6  C   -0.138612  -0.000728
     7  H    0.154787  -0.000326
     8  H    0.176855  -0.001197
     9  H    0.154786  -0.000326
    10  C    0.032339   0.060553
    11  C   -0.138637  -0.000671
    12  C   -0.138633  -0.000684
    13  C   -0.109419   0.026757
    14  C   -0.109530   0.026770
    15  C   -0.044839   0.048701
    16  H    0.154786  -0.000328
    17  H    0.154788  -0.000328
    18  H    0.176775  -0.001193
    19  H    0.176799  -0.001194
    20  H    0.176848  -0.001196
    21  N    0.029033   0.187786
    22  C   -0.062963  -0.020260
    23  C   -0.104664   0.050864
    24  C   -0.103320   0.050809
    25  C   -0.112724  -0.030995
    26  C   -0.113008  -0.033122
    27  C   -0.087801   0.064181
    28  H    0.173418  -0.002070
    29  H    0.162588  -0.002360
    30  H    0.136341   0.001424
    31  H    0.133105   0.001666
    32  H    0.137357  -0.003182
    33  C   -0.063372  -0.020241
    34  C   -0.104504   0.050812
    35  C   -0.103114   0.050759
    36  C   -0.112743  -0.030963
    37  C   -0.113013  -0.033089
    38  C   -0.087769   0.064110
    39  H    0.173391  -0.002068
    40  H    0.162530  -0.002357
    41  H    0.136341   0.001423
    42  H    0.133108   0.001665
    43  H    0.137360  -0.003179
    44  N    0.029021   0.187810
    45  C   -0.063341  -0.020245
    46  C   -0.104402   0.050816
    47  C   -0.103234   0.050756
    48  C   -0.112729  -0.030962
    49  C   -0.113020  -0.033088
    50  C   -0.087779   0.064107
    51  H    0.173346  -0.002069
    52  H    0.162578  -0.002358
    53  H    0.136342   0.001423
    54  H    0.133110   0.001665
    55  H    0.137363  -0.003178
    56  C   -0.063543  -0.020237
    57  C   -0.104331   0.050797
    58  C   -0.103124   0.050734
    59  C   -0.112743  -0.030949
    60  C   -0.113032  -0.033075
    61  C   -0.087762   0.064080
    62  H    0.173329  -0.002068
    63  H    0.162566  -0.002357
    64  H    0.136343   0.001423
    65  H    0.133111   0.001664
    66  H    0.137363  -0.003177
 Sum of Mulliken charges =   1.00000   1.00000

 Dipole moment (field-independent basis, Debye):
    X=             -0.0015    Y=              0.0003    Z=              0.0001  Tot=              0.0016
 Quadrupole moment (field-independent basis, Debye-Ang):
   XX=            -43.4192   YY=           -172.6870   ZZ=           -206.3124
   XY=              0.0064   XZ=             -0.0005   YZ=             -0.0037

 Normal termination of Gaussian 16 at Sun Jan 17 22:17:12 2021.
