 Gaussian 16, Revision A.03,
 Gaussian 16:  EM64L-G16RevA.03 25-Dec-2016

 ----------------------------------------------------------------------
 #P LC-wHPBE/TZVP iop(3/107=0177700000, 3/108=0177700000) scf=(conver=6
 ,fermi,ndamp=35,noincfock,novaracc,vshift=500,xqc)
 ----------------------------------------------------------------------

 ----------
 H28 C36 N2
 ----------
 Symbolic Z-matrix:
 Charge =  0 Multiplicity = 1

                         Standard orientation:
 ---------------------------------------------------------------------
 Center     Atomic      Atomic             Coordinates (Angstroms)
 Number     Number       Type             X           Y           Z
 ---------------------------------------------------------------------
      1          6           0       -2.849999   -1.125861   -0.415638
      2          6           0       -3.563139   -0.000026    0.000017
      3          6           0       -1.464492   -1.123667   -0.405534
      4          6           0       -2.850033    1.125752    0.415809
      5          6           0       -0.741288   -0.000047    0.000195
      6          6           0       -1.464504    1.123547    0.405879
      7          1           0       -0.931596   -2.005844   -0.756198
      8          1           0       -3.391048    2.006254    0.754990
      9          1           0       -0.931669    2.005728    0.756629
     10          6           0        0.741437   -0.000073    0.000217
     11          6           0        1.464635    1.123165   -0.406556
     12          6           0        1.464638   -1.123302    0.406976
     13          6           0        2.850149    1.125343   -0.416610
     14          6           0        2.850163   -1.125491    0.416935
     15          6           0        3.563257   -0.000095    0.000116
     16          1           0        0.931751    2.005025   -0.758038
     17          1           0        0.931783   -2.005140    0.758553
     18          1           0        3.391193    2.005527   -0.756576
     19          1           0        3.391211   -2.005669    0.756913
     20          1           0       -3.391005   -2.006357   -0.754845
     21          7           0        4.978430   -0.000102    0.000065
     22          6           0        5.687099   -1.154578   -0.414287
     23          6           0        6.831881   -1.566674    0.271150
     24          6           0        5.251323   -1.896933   -1.513908
     25          6           0        7.528311   -2.692826   -0.143324
     26          6           0        5.943392   -3.032223   -1.910440
     27          6           0        7.087522   -3.435368   -1.232277
     28          1           0        7.173684   -0.995181    1.131117
     29          1           0        4.363437   -1.577947   -2.055099
     30          1           0        8.419174   -2.999763    0.401550
     31          1           0        5.589860   -3.599797   -2.769285
     32          1           0        7.631852   -4.321852   -1.550225
     33          6           0        5.687025    1.154532    0.414292
     34          6           0        6.831191    1.567225   -0.271802
     35          6           0        5.251707    1.896381    1.514415
     36          6           0        7.527485    2.693516    0.142525
     37          6           0        5.943620    3.031828    1.910808
     38          6           0        7.087137    3.435581    1.231989
     39          1           0        7.172616    0.996083   -1.132151
     40          1           0        4.364291    1.576910    2.056093
     41          1           0        8.417875    3.000945   -0.402845
     42          1           0        5.590451    3.599029    2.770050
     43          1           0        7.631350    4.322181    1.549815
     44          7           0       -4.978266    0.000020   -0.000103
     45          6           0       -5.686990    1.154558   -0.414335
     46          6           0       -6.831289    1.566980    0.271699
     47          6           0       -5.251761    1.896543   -1.514410
     48          6           0       -7.527834    2.693112   -0.142653
     49          6           0       -5.943923    3.031822   -1.910819
     50          6           0       -7.087590    3.435293   -1.232069
     51          1           0       -7.172649    0.995729    1.132000
     52          1           0       -4.364233    1.577285   -2.056034
     53          1           0       -8.418333    3.000297    0.402674
     54          1           0       -5.590850    3.599137   -2.770027
     55          1           0       -7.631979    4.321768   -1.549941
     56          6           0       -5.687017   -1.154516    0.414141
     57          6           0       -6.831068   -1.567191   -0.272109
     58          6           0       -5.251977   -1.896199    1.514492
     59          6           0       -7.527566   -2.693348    0.142281
     60          6           0       -5.944079   -3.031486    1.910953
     61          6           0       -7.087509   -3.435246    1.231958
     62          1           0       -7.172277   -0.996155   -1.132614
     63          1           0       -4.364636   -1.576682    2.056275
     64          1           0       -8.417864   -3.000787   -0.403227
     65          1           0       -5.591165   -3.598572    2.770374
     66          1           0       -7.631874   -4.321730    1.549857
 ---------------------------------------------------------------------

 SCF Done:  E(RLC-wHPBE) =  -1497.20257162     A.U. after   14 cycles

 The electronic state is 1-A.
 Alpha  occ. eigenvalues --  -14.12051 -14.12051 -10.02925 -10.02924 -10.02924
 Alpha  occ. eigenvalues --  -10.02923 -10.02848 -10.02847  -9.99513  -9.99500
 Alpha  occ. eigenvalues --   -9.98906  -9.98905  -9.98905  -9.98903  -9.98903
 Alpha  occ. eigenvalues --   -9.98903  -9.98902  -9.98901  -9.98843  -9.98843
 Alpha  occ. eigenvalues --   -9.98841  -9.98840  -9.98649  -9.98648  -9.98648
 Alpha  occ. eigenvalues --   -9.98647  -9.98631  -9.98631  -9.98630  -9.98629
 Alpha  occ. eigenvalues --   -9.98625  -9.98624  -9.98624  -9.98622  -9.98437
 Alpha  occ. eigenvalues --   -9.98436  -9.98436  -9.98434  -0.99459  -0.99454
 Alpha  occ. eigenvalues --   -0.90014  -0.88980  -0.88978  -0.88688  -0.87502
 Alpha  occ. eigenvalues --   -0.86659  -0.81466  -0.79620  -0.79541  -0.78895
 Alpha  occ. eigenvalues --   -0.78344  -0.78237  -0.78017  -0.77997  -0.77726
 Alpha  occ. eigenvalues --   -0.77463  -0.75383  -0.73362  -0.68333  -0.67608
 Alpha  occ. eigenvalues --   -0.67013  -0.66076  -0.65565  -0.64649  -0.64617
 Alpha  occ. eigenvalues --   -0.64503  -0.63605  -0.63526  -0.61831  -0.61205
 Alpha  occ. eigenvalues --   -0.58880  -0.58701  -0.58476  -0.58237  -0.55904
 Alpha  occ. eigenvalues --   -0.54373  -0.53421  -0.53322  -0.52750  -0.52204
 Alpha  occ. eigenvalues --   -0.51486  -0.50479  -0.50213  -0.49987  -0.49510
 Alpha  occ. eigenvalues --   -0.49057  -0.49015  -0.48621  -0.48168  -0.48127
 Alpha  occ. eigenvalues --   -0.48021  -0.47363  -0.47172  -0.47106  -0.46962
 Alpha  occ. eigenvalues --   -0.46956  -0.46653  -0.45079  -0.43906  -0.43704
 Alpha  occ. eigenvalues --   -0.43411  -0.43354  -0.43300  -0.42972  -0.41641
 Alpha  occ. eigenvalues --   -0.41301  -0.40808  -0.40613  -0.40305  -0.40242
 Alpha  occ. eigenvalues --   -0.39987  -0.39390  -0.39160  -0.38978  -0.38796
 Alpha  occ. eigenvalues --   -0.37091  -0.36439  -0.33816  -0.32601  -0.32576
 Alpha  occ. eigenvalues --   -0.32542  -0.32535  -0.31678  -0.31431  -0.31375
 Alpha  occ. eigenvalues --   -0.31340  -0.30511  -0.25055  -0.23612
 Alpha virt. eigenvalues --    0.00690   0.02122   0.02177   0.02566   0.02567
 Alpha virt. eigenvalues --    0.04082   0.04383   0.04572   0.04609   0.04617
 Alpha virt. eigenvalues --    0.06788   0.08538   0.10037   0.10254   0.11027

 Mulliken charges:
               1
     1  C   -0.121081
     2  C   -0.036840
     3  C   -0.150547
     4  C   -0.121108
     5  C    0.034650
     6  C   -0.150536
     7  H    0.123175
     8  H    0.143291
     9  H    0.123173
    10  C    0.034741
    11  C   -0.150561
    12  C   -0.150553
    13  C   -0.120756
    14  C   -0.120862
    15  C   -0.037438
    16  H    0.123176
    17  H    0.123177
    18  H    0.143215
    19  H    0.143237
    20  H    0.143284
    21  N   -0.004772
    22  C   -0.053446
    23  C   -0.113473
    24  C   -0.107485
    25  C   -0.110313
    26  C   -0.110292
    27  C   -0.100723
    28  H    0.147831
    29  H    0.146132
    30  H    0.103944
    31  H    0.103908
    32  H    0.102624
    33  C   -0.053852
    34  C   -0.113298
    35  C   -0.107263
    36  C   -0.110329
    37  C   -0.110295
    38  C   -0.100678
    39  H    0.147811
    40  H    0.146072
    41  H    0.103951
    42  H    0.103914
    43  H    0.102635
    44  N   -0.004780
    45  C   -0.053829
    46  C   -0.113199
    47  C   -0.107389
    48  C   -0.110312
    49  C   -0.110296
    50  C   -0.100685
    51  H    0.147768
    52  H    0.146118
    53  H    0.103952
    54  H    0.103916
    55  H    0.102637
    56  C   -0.054028
    57  C   -0.113126
    58  C   -0.107268
    59  C   -0.110323
    60  C   -0.110309
    61  C   -0.100663
    62  H    0.147752
    63  H    0.146107
    64  H    0.103956
    65  H    0.103919
    66  H    0.102640
 Sum of Mulliken charges =  -0.00000

 Dipole moment (field-independent basis, Debye):
    X=             -0.0038    Y=              0.0007    Z=              0.0005  Tot=              0.0039
 Quadrupole moment (field-independent basis, Debye-Ang):
   XX=           -204.8162   YY=           -207.0354   ZZ=           -218.0458
   XY=              0.0143   XZ=              0.0007   YZ=             -0.0051

 1\1\GINC-CASCADEB019\SP\RLC-wHPBE\TZVP\C36H28N2\RDU230\18-Jan-2021\0\\
 #P LC-wHPBE/TZVP iop(3/107=0177700000, 3/108=0177700000) scf=(conver=6
 ,fermi,ndamp=35,noincfock,novaracc,vshift=500,xqc)\\H28 C36 N2\\0,1\C,
 0,2.849999,-1.125861,0.415638\C,0,3.563139,-0.000026,-0.000017\C,0,1.4
 64492,-1.123667,0.405534\C,0,2.850033,1.125752,-0.415809\C,0,0.741288,
 -0.000047,-0.000195\C,0,1.464504,1.123547,-0.405879\H,0,0.931596,-2.00
 5844,0.756198\H,0,3.391048,2.006254,-0.75499\H,0,0.931669,2.005728,-0.
 756629\C,0,-0.741437,-0.000073,-0.000217\C,0,-1.464635,1.123165,0.4065

 Normal termination of Gaussian 16 at Mon Jan 18 04:35:34 2021.
