 Gaussian 16, Revision A.03,
 Gaussian 16:  EM64L-G16RevA.03 25-Dec-2016

 ----------------------------------------------------------------------
 #P LC-wHPBE/TZVP iop(3/107=0184000000, 3/108=0184000000) scf=(conver=6
 ,fermi,ndamp=35,noincfock,novaracc,vshift=500,xqc)
 ----------------------------------------------------------------------

 ----------
 H28 C36 N2
 ----------
 Symbolic Z-matrix:
 Charge =  0 Multiplicity = 1

                         Standard orientation:
 ---------------------------------------------------------------------
 Center     Atomic      Atomic             Coordinates (Angstroms)
 Number     Number       Type             X           Y           Z
 ---------------------------------------------------------------------
      1          6           0       -2.849999   -1.125861   -0.415638
      2          6           0       -3.563139   -0.000026    0.000017
      3          6           0       -1.464492   -1.123667   -0.405534
      4          6           0       -2.850033    1.125752    0.415809
      5          6           0       -0.741288   -0.000047    0.000195
      6          6           0       -1.464504    1.123547    0.405879
      7          1           0       -0.931596   -2.005844   -0.756198
      8          1           0       -3.391048    2.006254    0.754990
      9          1           0       -0.931669    2.005728    0.756629
     10          6           0        0.741437   -0.000073    0.000217
     11          6           0        1.464635    1.123165   -0.406556
     12          6           0        1.464638   -1.123302    0.406976
     13          6           0        2.850149    1.125343   -0.416610
     14          6           0        2.850163   -1.125491    0.416935
     15          6           0        3.563257   -0.000095    0.000116
     16          1           0        0.931751    2.005025   -0.758038
     17          1           0        0.931783   -2.005140    0.758553
     18          1           0        3.391193    2.005527   -0.756576
     19          1           0        3.391211   -2.005669    0.756913
     20          1           0       -3.391005   -2.006357   -0.754845
     21          7           0        4.978430   -0.000102    0.000065
     22          6           0        5.687099   -1.154578   -0.414287
     23          6           0        6.831881   -1.566674    0.271150
     24          6           0        5.251323   -1.896933   -1.513908
     25          6           0        7.528311   -2.692826   -0.143324
     26          6           0        5.943392   -3.032223   -1.910440
     27          6           0        7.087522   -3.435368   -1.232277
     28          1           0        7.173684   -0.995181    1.131117
     29          1           0        4.363437   -1.577947   -2.055099
     30          1           0        8.419174   -2.999763    0.401550
     31          1           0        5.589860   -3.599797   -2.769285
     32          1           0        7.631852   -4.321852   -1.550225
     33          6           0        5.687025    1.154532    0.414292
     34          6           0        6.831191    1.567225   -0.271802
     35          6           0        5.251707    1.896381    1.514415
     36          6           0        7.527485    2.693516    0.142525
     37          6           0        5.943620    3.031828    1.910808
     38          6           0        7.087137    3.435581    1.231989
     39          1           0        7.172616    0.996083   -1.132151
     40          1           0        4.364291    1.576910    2.056093
     41          1           0        8.417875    3.000945   -0.402845
     42          1           0        5.590451    3.599029    2.770050
     43          1           0        7.631350    4.322181    1.549815
     44          7           0       -4.978266    0.000020   -0.000103
     45          6           0       -5.686990    1.154558   -0.414335
     46          6           0       -6.831289    1.566980    0.271699
     47          6           0       -5.251761    1.896543   -1.514410
     48          6           0       -7.527834    2.693112   -0.142653
     49          6           0       -5.943923    3.031822   -1.910819
     50          6           0       -7.087590    3.435293   -1.232069
     51          1           0       -7.172649    0.995729    1.132000
     52          1           0       -4.364233    1.577285   -2.056034
     53          1           0       -8.418333    3.000297    0.402674
     54          1           0       -5.590850    3.599137   -2.770027
     55          1           0       -7.631979    4.321768   -1.549941
     56          6           0       -5.687017   -1.154516    0.414141
     57          6           0       -6.831068   -1.567191   -0.272109
     58          6           0       -5.251977   -1.896199    1.514492
     59          6           0       -7.527566   -2.693348    0.142281
     60          6           0       -5.944079   -3.031486    1.910953
     61          6           0       -7.087509   -3.435246    1.231958
     62          1           0       -7.172277   -0.996155   -1.132614
     63          1           0       -4.364636   -1.576682    2.056275
     64          1           0       -8.417864   -3.000787   -0.403227
     65          1           0       -5.591165   -3.598572    2.770374
     66          1           0       -7.631874   -4.321730    1.549857
 ---------------------------------------------------------------------

 SCF Done:  E(RLC-wHPBE) =  -1497.21554775     A.U. after   14 cycles

 The electronic state is 1-A.
 Alpha  occ. eigenvalues --  -14.12378 -14.12377 -10.03284 -10.03283 -10.03282
 Alpha  occ. eigenvalues --  -10.03282 -10.03207 -10.03206  -9.99870  -9.99856
 Alpha  occ. eigenvalues --   -9.99261  -9.99260  -9.99260  -9.99258  -9.99258
 Alpha  occ. eigenvalues --   -9.99258  -9.99257  -9.99256  -9.99200  -9.99199
 Alpha  occ. eigenvalues --   -9.99197  -9.99196  -9.99002  -9.99001  -9.99001
 Alpha  occ. eigenvalues --   -9.99000  -9.98984  -9.98983  -9.98983  -9.98981
 Alpha  occ. eigenvalues --   -9.98977  -9.98977  -9.98976  -9.98974  -9.98791
 Alpha  occ. eigenvalues --   -9.98790  -9.98790  -9.98788  -0.99823  -0.99819
 Alpha  occ. eigenvalues --   -0.90392  -0.89355  -0.89353  -0.89063  -0.87874
 Alpha  occ. eigenvalues --   -0.87030  -0.81830  -0.79981  -0.79902  -0.79255
 Alpha  occ. eigenvalues --   -0.78705  -0.78597  -0.78377  -0.78356  -0.78086
 Alpha  occ. eigenvalues --   -0.77819  -0.75734  -0.73707  -0.68666  -0.67943
 Alpha  occ. eigenvalues --   -0.67344  -0.66406  -0.65897  -0.64979  -0.64947
 Alpha  occ. eigenvalues --   -0.64831  -0.63932  -0.63851  -0.62153  -0.61527
 Alpha  occ. eigenvalues --   -0.59198  -0.59016  -0.58790  -0.58547  -0.56215
 Alpha  occ. eigenvalues --   -0.54677  -0.53717  -0.53622  -0.53045  -0.52502
 Alpha  occ. eigenvalues --   -0.51785  -0.50771  -0.50506  -0.50275  -0.49800
 Alpha  occ. eigenvalues --   -0.49347  -0.49304  -0.48908  -0.48451  -0.48408
 Alpha  occ. eigenvalues --   -0.48307  -0.47648  -0.47456  -0.47389  -0.47243
 Alpha  occ. eigenvalues --   -0.47237  -0.46934  -0.45348  -0.44206  -0.43997
 Alpha  occ. eigenvalues --   -0.43702  -0.43655  -0.43598  -0.43269  -0.41902
 Alpha  occ. eigenvalues --   -0.41560  -0.41067  -0.40869  -0.40565  -0.40506
 Alpha  occ. eigenvalues --   -0.40240  -0.39643  -0.39412  -0.39229  -0.39048
 Alpha  occ. eigenvalues --   -0.37343  -0.36693  -0.34038  -0.32814  -0.32789
 Alpha  occ. eigenvalues --   -0.32756  -0.32748  -0.31888  -0.31641  -0.31583
 Alpha  occ. eigenvalues --   -0.31550  -0.30709  -0.25227  -0.23777
 Alpha virt. eigenvalues --    0.00839   0.02288   0.02343   0.02729   0.02730
 Alpha virt. eigenvalues --    0.04251   0.04562   0.04752   0.04788   0.04796
 Alpha virt. eigenvalues --    0.06968   0.08729   0.10203   0.10421   0.11195

 Mulliken charges:
               1
     1  C   -0.121153
     2  C   -0.037272
     3  C   -0.151323
     4  C   -0.121179
     5  C    0.034423
     6  C   -0.151312
     7  H    0.123856
     8  H    0.144056
     9  H    0.123854
    10  C    0.034515
    11  C   -0.151338
    12  C   -0.151330
    13  C   -0.120827
    14  C   -0.120932
    15  C   -0.037870
    16  H    0.123857
    17  H    0.123858
    18  H    0.143980
    19  H    0.144002
    20  H    0.144049
    21  N   -0.006750
    22  C   -0.053029
    23  C   -0.113937
    24  C   -0.107910
    25  C   -0.110884
    26  C   -0.110848
    27  C   -0.101464
    28  H    0.148561
    29  H    0.146872
    30  H    0.104468
    31  H    0.104431
    32  H    0.103167
    33  C   -0.053436
    34  C   -0.113761
    35  C   -0.107687
    36  C   -0.110900
    37  C   -0.110851
    38  C   -0.101419
    39  H    0.148541
    40  H    0.146812
    41  H    0.104475
    42  H    0.104438
    43  H    0.103178
    44  N   -0.006758
    45  C   -0.053413
    46  C   -0.113663
    47  C   -0.107813
    48  C   -0.110883
    49  C   -0.110852
    50  C   -0.101425
    51  H    0.148498
    52  H    0.146857
    53  H    0.104476
    54  H    0.104439
    55  H    0.103180
    56  C   -0.053612
    57  C   -0.113590
    58  C   -0.107692
    59  C   -0.110895
    60  C   -0.110865
    61  C   -0.101404
    62  H    0.148482
    63  H    0.146847
    64  H    0.104479
    65  H    0.104442
    66  H    0.103183
 Sum of Mulliken charges =  -0.00000

 Dipole moment (field-independent basis, Debye):
    X=             -0.0037    Y=              0.0007    Z=              0.0005  Tot=              0.0038
 Quadrupole moment (field-independent basis, Debye-Ang):
   XX=           -204.7436   YY=           -206.9575   ZZ=           -217.9957
   XY=              0.0143   XZ=              0.0007   YZ=             -0.0051

 1\1\GINC-CASCADEB019\SP\RLC-wHPBE\TZVP\C36H28N2\RDU230\18-Jan-2021\0\\
 #P LC-wHPBE/TZVP iop(3/107=0184000000, 3/108=0184000000) scf=(conver=6
 ,fermi,ndamp=35,noincfock,novaracc,vshift=500,xqc)\\H28 C36 N2\\0,1\C,
 0,2.849999,-1.125861,0.415638\C,0,3.563139,-0.000026,-0.000017\C,0,1.4
 64492,-1.123667,0.405534\C,0,2.850033,1.125752,-0.415809\C,0,0.741288,
 -0.000047,-0.000195\C,0,1.464504,1.123547,-0.405879\H,0,0.931596,-2.00
 5844,0.756198\H,0,3.391048,2.006254,-0.75499\H,0,0.931669,2.005728,-0.
 756629\C,0,-0.741437,-0.000073,-0.000217\C,0,-1.464635,1.123165,0.4065

 Normal termination of Gaussian 16 at Mon Jan 18 01:35:21 2021.
