 Gaussian 16, Revision A.03,
 Gaussian 16:  EM64L-G16RevA.03 25-Dec-2016

 ----------------------------------------------------------------------
 #P LC-wHPBE/TZVP iop(3/107=0176900000, 3/108=0176900000) scf=(conver=6
 ,fermi,ndamp=35,noincfock,novaracc,vshift=500,xqc)
 ----------------------------------------------------------------------

 ----------
 H28 C36 N2
 ----------
 Symbolic Z-matrix:
 Charge =  1 Multiplicity = 2

                         Standard orientation:
 ---------------------------------------------------------------------
 Center     Atomic      Atomic             Coordinates (Angstroms)
 Number     Number       Type             X           Y           Z
 ---------------------------------------------------------------------
      1          6           0       -2.849999   -1.125861   -0.415638
      2          6           0       -3.563139   -0.000026    0.000017
      3          6           0       -1.464492   -1.123667   -0.405534
      4          6           0       -2.850033    1.125752    0.415809
      5          6           0       -0.741288   -0.000047    0.000195
      6          6           0       -1.464504    1.123547    0.405879
      7          1           0       -0.931596   -2.005844   -0.756198
      8          1           0       -3.391048    2.006254    0.754990
      9          1           0       -0.931669    2.005728    0.756629
     10          6           0        0.741437   -0.000073    0.000217
     11          6           0        1.464635    1.123165   -0.406556
     12          6           0        1.464638   -1.123302    0.406976
     13          6           0        2.850149    1.125343   -0.416610
     14          6           0        2.850163   -1.125491    0.416935
     15          6           0        3.563257   -0.000095    0.000116
     16          1           0        0.931751    2.005025   -0.758038
     17          1           0        0.931783   -2.005140    0.758553
     18          1           0        3.391193    2.005527   -0.756576
     19          1           0        3.391211   -2.005669    0.756913
     20          1           0       -3.391005   -2.006357   -0.754845
     21          7           0        4.978430   -0.000102    0.000065
     22          6           0        5.687099   -1.154578   -0.414287
     23          6           0        6.831881   -1.566674    0.271150
     24          6           0        5.251323   -1.896933   -1.513908
     25          6           0        7.528311   -2.692826   -0.143324
     26          6           0        5.943392   -3.032223   -1.910440
     27          6           0        7.087522   -3.435368   -1.232277
     28          1           0        7.173684   -0.995181    1.131117
     29          1           0        4.363437   -1.577947   -2.055099
     30          1           0        8.419174   -2.999763    0.401550
     31          1           0        5.589860   -3.599797   -2.769285
     32          1           0        7.631852   -4.321852   -1.550225
     33          6           0        5.687025    1.154532    0.414292
     34          6           0        6.831191    1.567225   -0.271802
     35          6           0        5.251707    1.896381    1.514415
     36          6           0        7.527485    2.693516    0.142525
     37          6           0        5.943620    3.031828    1.910808
     38          6           0        7.087137    3.435581    1.231989
     39          1           0        7.172616    0.996083   -1.132151
     40          1           0        4.364291    1.576910    2.056093
     41          1           0        8.417875    3.000945   -0.402845
     42          1           0        5.590451    3.599029    2.770050
     43          1           0        7.631350    4.322181    1.549815
     44          7           0       -4.978266    0.000020   -0.000103
     45          6           0       -5.686990    1.154558   -0.414335
     46          6           0       -6.831289    1.566980    0.271699
     47          6           0       -5.251761    1.896543   -1.514410
     48          6           0       -7.527834    2.693112   -0.142653
     49          6           0       -5.943923    3.031822   -1.910819
     50          6           0       -7.087590    3.435293   -1.232069
     51          1           0       -7.172649    0.995729    1.132000
     52          1           0       -4.364233    1.577285   -2.056034
     53          1           0       -8.418333    3.000297    0.402674
     54          1           0       -5.590850    3.599137   -2.770027
     55          1           0       -7.631979    4.321768   -1.549941
     56          6           0       -5.687017   -1.154516    0.414141
     57          6           0       -6.831068   -1.567191   -0.272109
     58          6           0       -5.251977   -1.896199    1.514492
     59          6           0       -7.527566   -2.693348    0.142281
     60          6           0       -5.944079   -3.031486    1.910953
     61          6           0       -7.087509   -3.435246    1.231958
     62          1           0       -7.172277   -0.996155   -1.132614
     63          1           0       -4.364636   -1.576682    2.056275
     64          1           0       -8.417864   -3.000787   -0.403227
     65          1           0       -5.591165   -3.598572    2.770374
     66          1           0       -7.631874   -4.321730    1.549857
 ---------------------------------------------------------------------

 SCF Done:  E(ULC-wHPBE) =  -1496.96494570     A.U. after   22 cycles

 The electronic state is 2-A.
 Alpha  occ. eigenvalues --  -14.25325 -14.25325 -10.14639 -10.14637 -10.12944
 Alpha  occ. eigenvalues --  -10.12944 -10.12943 -10.12942 -10.11284 -10.11270
 Alpha  occ. eigenvalues --  -10.10015 -10.10014 -10.10011 -10.10010 -10.09973
 Alpha  occ. eigenvalues --  -10.09972 -10.09972 -10.09972 -10.08590 -10.08589
 Alpha  occ. eigenvalues --  -10.08589 -10.08588 -10.08427 -10.08426 -10.08426
 Alpha  occ. eigenvalues --  -10.08425 -10.08016 -10.08016 -10.08016 -10.08016
 Alpha  occ. eigenvalues --  -10.07943 -10.07943 -10.07943 -10.07943 -10.07836
 Alpha  occ. eigenvalues --  -10.07835 -10.07835 -10.07835  -1.11280  -1.11276
 Alpha  occ. eigenvalues --   -1.01349  -0.99599  -0.98648  -0.98648  -0.97366
 Alpha  occ. eigenvalues --   -0.96837  -0.92658  -0.90065  -0.89721  -0.89245
 Alpha  occ. eigenvalues --   -0.88780  -0.88446  -0.87755  -0.87418  -0.87417
 Alpha  occ. eigenvalues --   -0.87334  -0.85495  -0.83871  -0.79030  -0.78374
 Alpha  occ. eigenvalues --   -0.77238  -0.76316  -0.75869  -0.74693  -0.74371
 Alpha  occ. eigenvalues --   -0.74053  -0.73900  -0.73562  -0.71726  -0.71391
 Alpha  occ. eigenvalues --   -0.69404  -0.68644  -0.68460  -0.68219  -0.66341
 Alpha  occ. eigenvalues --   -0.64011  -0.63884  -0.63362  -0.62493  -0.62198
 Alpha  occ. eigenvalues --   -0.62040  -0.60526  -0.60391  -0.59801  -0.59689
 Alpha  occ. eigenvalues --   -0.59633  -0.58881  -0.58196  -0.57936  -0.57820
 Alpha  occ. eigenvalues --   -0.57733  -0.57659  -0.57604  -0.56550  -0.56418
 Alpha  occ. eigenvalues --   -0.56213  -0.56213  -0.55946  -0.54893  -0.54393
 Alpha  occ. eigenvalues --   -0.53550  -0.53288  -0.52950  -0.52920  -0.51527
 Alpha  occ. eigenvalues --   -0.51320  -0.50831  -0.50526  -0.50300  -0.49922
 Alpha  occ. eigenvalues --   -0.49887  -0.49161  -0.48830  -0.48464  -0.48436
 Alpha  occ. eigenvalues --   -0.47831  -0.46934  -0.44538  -0.43157  -0.43133
 Alpha  occ. eigenvalues --   -0.42116  -0.42110  -0.41795  -0.41288  -0.41269
 Alpha  occ. eigenvalues --   -0.40821  -0.40660  -0.36208  -0.35021
 Alpha virt. eigenvalues --   -0.10346  -0.08133  -0.08007  -0.07002  -0.06992
 Alpha virt. eigenvalues --   -0.06338  -0.05716  -0.05596  -0.04799  -0.04767
 Alpha virt. eigenvalues --   -0.03267  -0.02120   0.00853   0.01480   0.02522

  Beta  occ. eigenvalues --  -14.24924 -14.24923 -10.14596 -10.14594 -10.12976
  Beta  occ. eigenvalues --  -10.12975 -10.12974 -10.12974 -10.11200 -10.11186
  Beta  occ. eigenvalues --  -10.09997 -10.09996 -10.09994 -10.09993 -10.09933
  Beta  occ. eigenvalues --  -10.09933 -10.09933 -10.09933 -10.08521 -10.08521
  Beta  occ. eigenvalues --  -10.08521 -10.08520 -10.08363 -10.08362 -10.08362
  Beta  occ. eigenvalues --  -10.08361 -10.08044 -10.08043 -10.08043 -10.08043
  Beta  occ. eigenvalues --  -10.07968 -10.07967 -10.07967 -10.07967 -10.07766
  Beta  occ. eigenvalues --  -10.07765 -10.07765 -10.07765  -1.10782  -1.10777
  Beta  occ. eigenvalues --   -1.01176  -0.99442  -0.98563  -0.98563  -0.97239
  Beta  occ. eigenvalues --   -0.96692  -0.92443  -0.89989  -0.89639  -0.89097
  Beta  occ. eigenvalues --   -0.88697  -0.88367  -0.87683  -0.87353  -0.87352
  Beta  occ. eigenvalues --   -0.87245  -0.85305  -0.83567  -0.78923  -0.78232
  Beta  occ. eigenvalues --   -0.77104  -0.76196  -0.75733  -0.74545  -0.74312
  Beta  occ. eigenvalues --   -0.73968  -0.73819  -0.73488  -0.71638  -0.71307
  Beta  occ. eigenvalues --   -0.69333  -0.68550  -0.68387  -0.68141  -0.66252
  Beta  occ. eigenvalues --   -0.63853  -0.63796  -0.63271  -0.62379  -0.62016
  Beta  occ. eigenvalues --   -0.61709  -0.60451  -0.60253  -0.59722  -0.59602
  Beta  occ. eigenvalues --   -0.59592  -0.58810  -0.58151  -0.57900  -0.57725
  Beta  occ. eigenvalues --   -0.57683  -0.57589  -0.57553  -0.56482  -0.56376
  Beta  occ. eigenvalues --   -0.56180  -0.56179  -0.55850  -0.54647  -0.54042
  Beta  occ. eigenvalues --   -0.53253  -0.53049  -0.52762  -0.52734  -0.51469
  Beta  occ. eigenvalues --   -0.51191  -0.50473  -0.50444  -0.50248  -0.49823
  Beta  occ. eigenvalues --   -0.49768  -0.48954  -0.48713  -0.48418  -0.48389
  Beta  occ. eigenvalues --   -0.47541  -0.46309  -0.43774  -0.43008  -0.42998
  Beta  occ. eigenvalues --   -0.41736  -0.41729  -0.41013  -0.41007  -0.40972
  Beta  occ. eigenvalues --   -0.40658  -0.39897  -0.31910
  Beta virt. eigenvalues --   -0.23533  -0.09994  -0.07879  -0.07726  -0.06718
  Beta virt. eigenvalues --   -0.06702  -0.05894  -0.05499  -0.05315  -0.04604
  Beta virt. eigenvalues --   -0.04540  -0.02714  -0.01506   0.00891   0.01524

 Mulliken charges and spin densities:
               1          2
     1  C   -0.108676   0.028461
     2  C   -0.040546   0.042758
     3  C   -0.134327  -0.000409
     4  C   -0.108706   0.028472
     5  C    0.034892   0.057391
     6  C   -0.134318  -0.000412
     7  H    0.148857  -0.000245
     8  H    0.169981  -0.001232
     9  H    0.148856  -0.000245
    10  C    0.034983   0.057312
    11  C   -0.134348  -0.000369
    12  C   -0.134344  -0.000380
    13  C   -0.108349   0.028407
    14  C   -0.108466   0.028418
    15  C   -0.041155   0.042776
    16  H    0.148858  -0.000246
    17  H    0.148860  -0.000246
    18  H    0.169901  -0.001229
    19  H    0.169925  -0.001229
    20  H    0.169973  -0.001231
    21  N    0.040377   0.181989
    22  C   -0.063865  -0.014421
    23  C   -0.101031   0.047337
    24  C   -0.099136   0.047444
    25  C   -0.107731  -0.026282
    26  C   -0.107967  -0.028147
    27  C   -0.082107   0.061037
    28  H    0.167565  -0.001949
    29  H    0.157074  -0.002192
    30  H    0.132141   0.001245
    31  H    0.128935   0.001471
    32  H    0.133073  -0.003087
    33  C   -0.064274  -0.014408
    34  C   -0.100876   0.047289
    35  C   -0.098933   0.047399
    36  C   -0.107748  -0.026256
    37  C   -0.107969  -0.028120
    38  C   -0.082076   0.060969
    39  H    0.167538  -0.001947
    40  H    0.157016  -0.002190
    41  H    0.132141   0.001245
    42  H    0.128937   0.001470
    43  H    0.133076  -0.003084
    44  N    0.040379   0.181991
    45  C   -0.064258  -0.014411
    46  C   -0.100772   0.047287
    47  C   -0.099063   0.047391
    48  C   -0.107728  -0.026251
    49  C   -0.107971  -0.028115
    50  C   -0.082081   0.060959
    51  H    0.167494  -0.001947
    52  H    0.157063  -0.002190
    53  H    0.132140   0.001245
    54  H    0.128936   0.001469
    55  H    0.133075  -0.003083
    56  C   -0.064460  -0.014405
    57  C   -0.100705   0.047269
    58  C   -0.098951   0.047371
    59  C   -0.107742  -0.026240
    60  C   -0.107982  -0.028105
    61  C   -0.082065   0.060934
    62  H    0.167477  -0.001946
    63  H    0.157051  -0.002189
    64  H    0.132141   0.001244
    65  H    0.128937   0.001469
    66  H    0.133075  -0.003082
 Sum of Mulliken charges =   1.00000   1.00000

 Dipole moment (field-independent basis, Debye):
    X=             -0.0005    Y=              0.0003    Z=              0.0001  Tot=              0.0005
 Quadrupole moment (field-independent basis, Debye-Ang):
   XX=            -42.0502   YY=           -172.7970   ZZ=           -206.5148
   XY=              0.0062   XZ=             -0.0006   YZ=             -0.0034

 Normal termination of Gaussian 16 at Mon Jan 18 04:20:23 2021.
