 Gaussian 16, Revision A.03,
 Gaussian 16:  EM64L-G16RevA.03 25-Dec-2016

 ----------------------------------------------------------------------
 #P LC-wHPBE/TZVP iop(3/107=0178100000, 3/108=0178100000) scf=(conver=6
 ,fermi,ndamp=35,noincfock,novaracc,vshift=500,xqc)
 ----------------------------------------------------------------------

 ----------
 H28 C36 N2
 ----------
 Symbolic Z-matrix:
 Charge =  1 Multiplicity = 2

                         Standard orientation:
 ---------------------------------------------------------------------
 Center     Atomic      Atomic             Coordinates (Angstroms)
 Number     Number       Type             X           Y           Z
 ---------------------------------------------------------------------
      1          6           0       -2.849999   -1.125861   -0.415638
      2          6           0       -3.563139   -0.000026    0.000017
      3          6           0       -1.464492   -1.123667   -0.405534
      4          6           0       -2.850033    1.125752    0.415809
      5          6           0       -0.741288   -0.000047    0.000195
      6          6           0       -1.464504    1.123547    0.405879
      7          1           0       -0.931596   -2.005844   -0.756198
      8          1           0       -3.391048    2.006254    0.754990
      9          1           0       -0.931669    2.005728    0.756629
     10          6           0        0.741437   -0.000073    0.000217
     11          6           0        1.464635    1.123165   -0.406556
     12          6           0        1.464638   -1.123302    0.406976
     13          6           0        2.850149    1.125343   -0.416610
     14          6           0        2.850163   -1.125491    0.416935
     15          6           0        3.563257   -0.000095    0.000116
     16          1           0        0.931751    2.005025   -0.758038
     17          1           0        0.931783   -2.005140    0.758553
     18          1           0        3.391193    2.005527   -0.756576
     19          1           0        3.391211   -2.005669    0.756913
     20          1           0       -3.391005   -2.006357   -0.754845
     21          7           0        4.978430   -0.000102    0.000065
     22          6           0        5.687099   -1.154578   -0.414287
     23          6           0        6.831881   -1.566674    0.271150
     24          6           0        5.251323   -1.896933   -1.513908
     25          6           0        7.528311   -2.692826   -0.143324
     26          6           0        5.943392   -3.032223   -1.910440
     27          6           0        7.087522   -3.435368   -1.232277
     28          1           0        7.173684   -0.995181    1.131117
     29          1           0        4.363437   -1.577947   -2.055099
     30          1           0        8.419174   -2.999763    0.401550
     31          1           0        5.589860   -3.599797   -2.769285
     32          1           0        7.631852   -4.321852   -1.550225
     33          6           0        5.687025    1.154532    0.414292
     34          6           0        6.831191    1.567225   -0.271802
     35          6           0        5.251707    1.896381    1.514415
     36          6           0        7.527485    2.693516    0.142525
     37          6           0        5.943620    3.031828    1.910808
     38          6           0        7.087137    3.435581    1.231989
     39          1           0        7.172616    0.996083   -1.132151
     40          1           0        4.364291    1.576910    2.056093
     41          1           0        8.417875    3.000945   -0.402845
     42          1           0        5.590451    3.599029    2.770050
     43          1           0        7.631350    4.322181    1.549815
     44          7           0       -4.978266    0.000020   -0.000103
     45          6           0       -5.686990    1.154558   -0.414335
     46          6           0       -6.831289    1.566980    0.271699
     47          6           0       -5.251761    1.896543   -1.514410
     48          6           0       -7.527834    2.693112   -0.142653
     49          6           0       -5.943923    3.031822   -1.910819
     50          6           0       -7.087590    3.435293   -1.232069
     51          1           0       -7.172649    0.995729    1.132000
     52          1           0       -4.364233    1.577285   -2.056034
     53          1           0       -8.418333    3.000297    0.402674
     54          1           0       -5.590850    3.599137   -2.770027
     55          1           0       -7.631979    4.321768   -1.549941
     56          6           0       -5.687017   -1.154516    0.414141
     57          6           0       -6.831068   -1.567191   -0.272109
     58          6           0       -5.251977   -1.896199    1.514492
     59          6           0       -7.527566   -2.693348    0.142281
     60          6           0       -5.944079   -3.031486    1.910953
     61          6           0       -7.087509   -3.435246    1.231958
     62          1           0       -7.172277   -0.996155   -1.132614
     63          1           0       -4.364636   -1.576682    2.056275
     64          1           0       -8.417864   -3.000787   -0.403227
     65          1           0       -5.591165   -3.598572    2.770374
     66          1           0       -7.631874   -4.321730    1.549857
 ---------------------------------------------------------------------

 SCF Done:  E(ULC-wHPBE) =  -1496.96725528     A.U. after   22 cycles

 The electronic state is 2-A.
 Alpha  occ. eigenvalues --  -14.25393 -14.25392 -10.14712 -10.14710 -10.13012
 Alpha  occ. eigenvalues --  -10.13011 -10.13010 -10.13010 -10.11357 -10.11343
 Alpha  occ. eigenvalues --  -10.10086 -10.10085 -10.10083 -10.10081 -10.10044
 Alpha  occ. eigenvalues --  -10.10043 -10.10043 -10.10043 -10.08657 -10.08656
 Alpha  occ. eigenvalues --  -10.08656 -10.08656 -10.08493 -10.08493 -10.08493
 Alpha  occ. eigenvalues --  -10.08492 -10.08083 -10.08083 -10.08083 -10.08083
 Alpha  occ. eigenvalues --  -10.08010 -10.08010 -10.08010 -10.08009 -10.07902
 Alpha  occ. eigenvalues --  -10.07902 -10.07902 -10.07901  -1.11352  -1.11348
 Alpha  occ. eigenvalues --   -1.01425  -0.99673  -0.98719  -0.98719  -0.97437
 Alpha  occ. eigenvalues --   -0.96908  -0.92730  -0.90136  -0.89791  -0.89315
 Alpha  occ. eigenvalues --   -0.88849  -0.88516  -0.87824  -0.87486  -0.87485
 Alpha  occ. eigenvalues --   -0.87403  -0.85563  -0.83938  -0.79096  -0.78441
 Alpha  occ. eigenvalues --   -0.77303  -0.76380  -0.75932  -0.74758  -0.74434
 Alpha  occ. eigenvalues --   -0.74116  -0.73963  -0.73625  -0.71789  -0.71454
 Alpha  occ. eigenvalues --   -0.69467  -0.68705  -0.68521  -0.68279  -0.66402
 Alpha  occ. eigenvalues --   -0.64072  -0.63943  -0.63420  -0.62551  -0.62256
 Alpha  occ. eigenvalues --   -0.62099  -0.60585  -0.60448  -0.59859  -0.59746
 Alpha  occ. eigenvalues --   -0.59689  -0.58936  -0.58253  -0.57991  -0.57877
 Alpha  occ. eigenvalues --   -0.57788  -0.57714  -0.57660  -0.56605  -0.56472
 Alpha  occ. eigenvalues --   -0.56267  -0.56267  -0.56000  -0.54952  -0.54451
 Alpha  occ. eigenvalues --   -0.53606  -0.53345  -0.53008  -0.52977  -0.51579
 Alpha  occ. eigenvalues --   -0.51373  -0.50885  -0.50576  -0.50350  -0.49972
 Alpha  occ. eigenvalues --   -0.49937  -0.49211  -0.48879  -0.48512  -0.48484
 Alpha  occ. eigenvalues --   -0.47881  -0.46984  -0.44583  -0.43201  -0.43177
 Alpha  occ. eigenvalues --   -0.42157  -0.42150  -0.41836  -0.41328  -0.41309
 Alpha  occ. eigenvalues --   -0.40861  -0.40699  -0.36244  -0.35056
 Alpha virt. eigenvalues --   -0.10320  -0.08102  -0.07976  -0.06969  -0.06959
 Alpha virt. eigenvalues --   -0.06307  -0.05682  -0.05562  -0.04763  -0.04731
 Alpha virt. eigenvalues --   -0.03231  -0.02085   0.00884   0.01512   0.02554

  Beta  occ. eigenvalues --  -14.24990 -14.24990 -10.14669 -10.14667 -10.13044
  Beta  occ. eigenvalues --  -10.13043 -10.13042 -10.13041 -10.11273 -10.11259
  Beta  occ. eigenvalues --  -10.10068 -10.10068 -10.10065 -10.10064 -10.10004
  Beta  occ. eigenvalues --  -10.10004 -10.10003 -10.10003 -10.08589 -10.08588
  Beta  occ. eigenvalues --  -10.08588 -10.08587 -10.08430 -10.08429 -10.08429
  Beta  occ. eigenvalues --  -10.08428 -10.08111 -10.08110 -10.08110 -10.08110
  Beta  occ. eigenvalues --  -10.08035 -10.08034 -10.08034 -10.08034 -10.07832
  Beta  occ. eigenvalues --  -10.07832 -10.07832 -10.07831  -1.10854  -1.10849
  Beta  occ. eigenvalues --   -1.01251  -0.99516  -0.98634  -0.98634  -0.97310
  Beta  occ. eigenvalues --   -0.96763  -0.92515  -0.90061  -0.89709  -0.89167
  Beta  occ. eigenvalues --   -0.88766  -0.88437  -0.87752  -0.87421  -0.87420
  Beta  occ. eigenvalues --   -0.87313  -0.85372  -0.83633  -0.78988  -0.78299
  Beta  occ. eigenvalues --   -0.77168  -0.76259  -0.75797  -0.74609  -0.74376
  Beta  occ. eigenvalues --   -0.74030  -0.73882  -0.73551  -0.71700  -0.71370
  Beta  occ. eigenvalues --   -0.69395  -0.68611  -0.68447  -0.68201  -0.66312
  Beta  occ. eigenvalues --   -0.63914  -0.63855  -0.63329  -0.62437  -0.62073
  Beta  occ. eigenvalues --   -0.61767  -0.60509  -0.60309  -0.59780  -0.59659
  Beta  occ. eigenvalues --   -0.59648  -0.58865  -0.58209  -0.57955  -0.57781
  Beta  occ. eigenvalues --   -0.57738  -0.57643  -0.57610  -0.56536  -0.56430
  Beta  occ. eigenvalues --   -0.56234  -0.56233  -0.55903  -0.54706  -0.54099
  Beta  occ. eigenvalues --   -0.53309  -0.53106  -0.52819  -0.52790  -0.51521
  Beta  occ. eigenvalues --   -0.51244  -0.50523  -0.50495  -0.50298  -0.49872
  Beta  occ. eigenvalues --   -0.49817  -0.49003  -0.48762  -0.48466  -0.48438
  Beta  occ. eigenvalues --   -0.47591  -0.46356  -0.43813  -0.43053  -0.43042
  Beta  occ. eigenvalues --   -0.41775  -0.41768  -0.41050  -0.41047  -0.41011
  Beta  occ. eigenvalues --   -0.40697  -0.39928  -0.31927
  Beta virt. eigenvalues --   -0.23534  -0.09970  -0.07847  -0.07693  -0.06685
  Beta virt. eigenvalues --   -0.06669  -0.05861  -0.05464  -0.05280  -0.04568
  Beta virt. eigenvalues --   -0.04504  -0.02676  -0.01466   0.00922   0.01556

 Mulliken charges and spin densities:
               1          2
     1  C   -0.108685   0.028419
     2  C   -0.040614   0.042909
     3  C   -0.134439  -0.000412
     4  C   -0.108715   0.028429
     5  C    0.034847   0.057468
     6  C   -0.134430  -0.000414
     7  H    0.148987  -0.000247
     8  H    0.170137  -0.001231
     9  H    0.148987  -0.000247
    10  C    0.034939   0.057389
    11  C   -0.134460  -0.000371
    12  C   -0.134456  -0.000383
    13  C   -0.108357   0.028364
    14  C   -0.108474   0.028375
    15  C   -0.041223   0.042927
    16  H    0.148989  -0.000249
    17  H    0.148991  -0.000249
    18  H    0.170056  -0.001228
    19  H    0.170081  -0.001228
    20  H    0.170129  -0.001230
    21  N    0.040102   0.182168
    22  C   -0.063812  -0.014571
    23  C   -0.101101   0.047418
    24  C   -0.099218   0.047521
    25  C   -0.107857  -0.026392
    26  C   -0.108093  -0.028264
    27  C   -0.082227   0.061098
    28  H    0.167693  -0.001951
    29  H    0.157192  -0.002196
    30  H    0.132225   0.001249
    31  H    0.129017   0.001475
    32  H    0.133159  -0.003088
    33  C   -0.064221  -0.014558
    34  C   -0.100946   0.047370
    35  C   -0.099014   0.047476
    36  C   -0.107874  -0.026365
    37  C   -0.108096  -0.028236
    38  C   -0.082196   0.061030
    39  H    0.167666  -0.001949
    40  H    0.157134  -0.002194
    41  H    0.132224   0.001249
    42  H    0.129020   0.001474
    43  H    0.133162  -0.003085
    44  N    0.040105   0.182170
    45  C   -0.064205  -0.014561
    46  C   -0.100843   0.047368
    47  C   -0.099145   0.047468
    48  C   -0.107854  -0.026360
    49  C   -0.108098  -0.028232
    50  C   -0.082201   0.061021
    51  H    0.167622  -0.001950
    52  H    0.157181  -0.002194
    53  H    0.132224   0.001249
    54  H    0.129018   0.001474
    55  H    0.133161  -0.003085
    56  C   -0.064407  -0.014555
    57  C   -0.100775   0.047350
    58  C   -0.099033   0.047448
    59  C   -0.107867  -0.026350
    60  C   -0.108109  -0.028221
    61  C   -0.082186   0.060995
    62  H    0.167605  -0.001949
    63  H    0.157169  -0.002193
    64  H    0.132225   0.001248
    65  H    0.129020   0.001474
    66  H    0.133161  -0.003083
 Sum of Mulliken charges =   1.00000   1.00000

 Dipole moment (field-independent basis, Debye):
    X=             -0.0005    Y=              0.0003    Z=              0.0001  Tot=              0.0006
 Quadrupole moment (field-independent basis, Debye-Ang):
   XX=            -42.0888   YY=           -172.7950   ZZ=           -206.5095
   XY=              0.0062   XZ=             -0.0006   YZ=             -0.0034

 Normal termination of Gaussian 16 at Mon Jan 18 05:52:21 2021.
