 Gaussian 16, Revision A.03,
 Gaussian 16:  EM64L-G16RevA.03 25-Dec-2016

 ----------------------------------------------------------------------
 #P LC-wHPBE/TZVP iop(3/107=0176900000, 3/108=0176900000) scf=(conver=6
 ,fermi,ndamp=35,noincfock,novaracc,vshift=500,xqc)
 ----------------------------------------------------------------------

 ----------
 H28 C36 N2
 ----------
 Symbolic Z-matrix:
 Charge =  0 Multiplicity = 1

                         Standard orientation:
 ---------------------------------------------------------------------
 Center     Atomic      Atomic             Coordinates (Angstroms)
 Number     Number       Type             X           Y           Z
 ---------------------------------------------------------------------
      1          6           0       -2.849999   -1.125861   -0.415638
      2          6           0       -3.563139   -0.000026    0.000017
      3          6           0       -1.464492   -1.123667   -0.405534
      4          6           0       -2.850033    1.125752    0.415809
      5          6           0       -0.741288   -0.000047    0.000195
      6          6           0       -1.464504    1.123547    0.405879
      7          1           0       -0.931596   -2.005844   -0.756198
      8          1           0       -3.391048    2.006254    0.754990
      9          1           0       -0.931669    2.005728    0.756629
     10          6           0        0.741437   -0.000073    0.000217
     11          6           0        1.464635    1.123165   -0.406556
     12          6           0        1.464638   -1.123302    0.406976
     13          6           0        2.850149    1.125343   -0.416610
     14          6           0        2.850163   -1.125491    0.416935
     15          6           0        3.563257   -0.000095    0.000116
     16          1           0        0.931751    2.005025   -0.758038
     17          1           0        0.931783   -2.005140    0.758553
     18          1           0        3.391193    2.005527   -0.756576
     19          1           0        3.391211   -2.005669    0.756913
     20          1           0       -3.391005   -2.006357   -0.754845
     21          7           0        4.978430   -0.000102    0.000065
     22          6           0        5.687099   -1.154578   -0.414287
     23          6           0        6.831881   -1.566674    0.271150
     24          6           0        5.251323   -1.896933   -1.513908
     25          6           0        7.528311   -2.692826   -0.143324
     26          6           0        5.943392   -3.032223   -1.910440
     27          6           0        7.087522   -3.435368   -1.232277
     28          1           0        7.173684   -0.995181    1.131117
     29          1           0        4.363437   -1.577947   -2.055099
     30          1           0        8.419174   -2.999763    0.401550
     31          1           0        5.589860   -3.599797   -2.769285
     32          1           0        7.631852   -4.321852   -1.550225
     33          6           0        5.687025    1.154532    0.414292
     34          6           0        6.831191    1.567225   -0.271802
     35          6           0        5.251707    1.896381    1.514415
     36          6           0        7.527485    2.693516    0.142525
     37          6           0        5.943620    3.031828    1.910808
     38          6           0        7.087137    3.435581    1.231989
     39          1           0        7.172616    0.996083   -1.132151
     40          1           0        4.364291    1.576910    2.056093
     41          1           0        8.417875    3.000945   -0.402845
     42          1           0        5.590451    3.599029    2.770050
     43          1           0        7.631350    4.322181    1.549815
     44          7           0       -4.978266    0.000020   -0.000103
     45          6           0       -5.686990    1.154558   -0.414335
     46          6           0       -6.831289    1.566980    0.271699
     47          6           0       -5.251761    1.896543   -1.514410
     48          6           0       -7.527834    2.693112   -0.142653
     49          6           0       -5.943923    3.031822   -1.910819
     50          6           0       -7.087590    3.435293   -1.232069
     51          1           0       -7.172649    0.995729    1.132000
     52          1           0       -4.364233    1.577285   -2.056034
     53          1           0       -8.418333    3.000297    0.402674
     54          1           0       -5.590850    3.599137   -2.770027
     55          1           0       -7.631979    4.321768   -1.549941
     56          6           0       -5.687017   -1.154516    0.414141
     57          6           0       -6.831068   -1.567191   -0.272109
     58          6           0       -5.251977   -1.896199    1.514492
     59          6           0       -7.527566   -2.693348    0.142281
     60          6           0       -5.944079   -3.031486    1.910953
     61          6           0       -7.087509   -3.435246    1.231958
     62          1           0       -7.172277   -0.996155   -1.132614
     63          1           0       -4.364636   -1.576682    2.056275
     64          1           0       -8.417864   -3.000787   -0.403227
     65          1           0       -5.591165   -3.598572    2.770374
     66          1           0       -7.631874   -4.321730    1.549857
 ---------------------------------------------------------------------

 SCF Done:  E(RLC-wHPBE) =  -1497.20091821     A.U. after   14 cycles

 The electronic state is 1-A.
 Alpha  occ. eigenvalues --  -14.12010 -14.12009 -10.02880 -10.02879 -10.02878
 Alpha  occ. eigenvalues --  -10.02877 -10.02802 -10.02801  -9.99468  -9.99454
 Alpha  occ. eigenvalues --   -9.98861  -9.98860  -9.98860  -9.98858  -9.98858
 Alpha  occ. eigenvalues --   -9.98858  -9.98857  -9.98856  -9.98798  -9.98797
 Alpha  occ. eigenvalues --   -9.98796  -9.98794  -9.98604  -9.98603  -9.98603
 Alpha  occ. eigenvalues --   -9.98602  -9.98587  -9.98586  -9.98586  -9.98584
 Alpha  occ. eigenvalues --   -9.98580  -9.98580  -9.98579  -9.98577  -9.98392
 Alpha  occ. eigenvalues --   -9.98391  -9.98391  -9.98389  -0.99412  -0.99408
 Alpha  occ. eigenvalues --   -0.89967  -0.88932  -0.88930  -0.88641  -0.87454
 Alpha  occ. eigenvalues --   -0.86612  -0.81420  -0.79574  -0.79496  -0.78849
 Alpha  occ. eigenvalues --   -0.78298  -0.78191  -0.77971  -0.77951  -0.77681
 Alpha  occ. eigenvalues --   -0.77418  -0.75339  -0.73318  -0.68290  -0.67565
 Alpha  occ. eigenvalues --   -0.66971  -0.66034  -0.65523  -0.64607  -0.64575
 Alpha  occ. eigenvalues --   -0.64461  -0.63563  -0.63485  -0.61790  -0.61164
 Alpha  occ. eigenvalues --   -0.58840  -0.58661  -0.58436  -0.58197  -0.55865
 Alpha  occ. eigenvalues --   -0.54334  -0.53383  -0.53284  -0.52712  -0.52166
 Alpha  occ. eigenvalues --   -0.51448  -0.50441  -0.50176  -0.49950  -0.49473
 Alpha  occ. eigenvalues --   -0.49020  -0.48978  -0.48584  -0.48132  -0.48091
 Alpha  occ. eigenvalues --   -0.47985  -0.47327  -0.47136  -0.47070  -0.46927
 Alpha  occ. eigenvalues --   -0.46920  -0.46617  -0.45044  -0.43868  -0.43667
 Alpha  occ. eigenvalues --   -0.43373  -0.43316  -0.43262  -0.42934  -0.41607
 Alpha  occ. eigenvalues --   -0.41268  -0.40775  -0.40580  -0.40271  -0.40208
 Alpha  occ. eigenvalues --   -0.39954  -0.39357  -0.39127  -0.38946  -0.38763
 Alpha  occ. eigenvalues --   -0.37058  -0.36406  -0.33787  -0.32574  -0.32549
 Alpha  occ. eigenvalues --   -0.32514  -0.32508  -0.31651  -0.31404  -0.31348
 Alpha  occ. eigenvalues --   -0.31313  -0.30486  -0.25032  -0.23591
 Alpha virt. eigenvalues --    0.00671   0.02100   0.02156   0.02544   0.02546
 Alpha virt. eigenvalues --    0.04060   0.04360   0.04549   0.04586   0.04594
 Alpha virt. eigenvalues --    0.06765   0.08514   0.10015   0.10232   0.11005

 Mulliken charges:
               1
     1  C   -0.121074
     2  C   -0.036789
     3  C   -0.150449
     4  C   -0.121101
     5  C    0.034675
     6  C   -0.150438
     7  H    0.123092
     8  H    0.143197
     9  H    0.123090
    10  C    0.034767
    11  C   -0.150463
    12  C   -0.150455
    13  C   -0.120749
    14  C   -0.120855
    15  C   -0.037387
    16  H    0.123093
    17  H    0.123094
    18  H    0.143121
    19  H    0.143143
    20  H    0.143190
    21  N   -0.004525
    22  C   -0.053501
    23  C   -0.113417
    24  C   -0.107435
    25  C   -0.110241
    26  C   -0.110222
    27  C   -0.100633
    28  H    0.147742
    29  H    0.146042
    30  H    0.103881
    31  H    0.103845
    32  H    0.102559
    33  C   -0.053908
    34  C   -0.113243
    35  C   -0.107212
    36  C   -0.110257
    37  C   -0.110225
    38  C   -0.100588
    39  H    0.147722
    40  H    0.145982
    41  H    0.103888
    42  H    0.103851
    43  H    0.102569
    44  N   -0.004532
    45  C   -0.053885
    46  C   -0.113144
    47  C   -0.107339
    48  C   -0.110240
    49  C   -0.110227
    50  C   -0.100595
    51  H    0.147679
    52  H    0.146027
    53  H    0.103889
    54  H    0.103853
    55  H    0.102571
    56  C   -0.054084
    57  C   -0.113071
    58  C   -0.107218
    59  C   -0.110252
    60  C   -0.110239
    61  C   -0.100574
    62  H    0.147663
    63  H    0.146017
    64  H    0.103893
    65  H    0.103856
    66  H    0.102574
 Sum of Mulliken charges =  -0.00000

 Dipole moment (field-independent basis, Debye):
    X=             -0.0038    Y=              0.0007    Z=              0.0005  Tot=              0.0039
 Quadrupole moment (field-independent basis, Debye-Ang):
   XX=           -204.8253   YY=           -207.0452   ZZ=           -218.0521
   XY=              0.0143   XZ=              0.0007   YZ=             -0.0051

 1\1\GINC-CASCADEB019\SP\RLC-wHPBE\TZVP\C36H28N2\RDU230\18-Jan-2021\0\\
 #P LC-wHPBE/TZVP iop(3/107=0176900000, 3/108=0176900000) scf=(conver=6
 ,fermi,ndamp=35,noincfock,novaracc,vshift=500,xqc)\\H28 C36 N2\\0,1\C,
 0,2.849999,-1.125861,0.415638\C,0,3.563139,-0.000026,-0.000017\C,0,1.4
 64492,-1.123667,0.405534\C,0,2.850033,1.125752,-0.415809\C,0,0.741288,
 -0.000047,-0.000195\C,0,1.464504,1.123547,-0.405879\H,0,0.931596,-2.00
 5844,0.756198\H,0,3.391048,2.006254,-0.75499\H,0,0.931669,2.005728,-0.
 756629\C,0,-0.741437,-0.000073,-0.000217\C,0,-1.464635,1.123165,0.4065

 Normal termination of Gaussian 16 at Mon Jan 18 03:49:33 2021.
