 Gaussian 16, Revision A.03,
 Gaussian 16:  EM64L-G16RevA.03 25-Dec-2016

 ----------------------------------------------------------------------
 #P LC-wHPBE/TZVP iop(3/107=0126900000, 3/108=0126900000) scf=(conver=6
 ,fermi,ndamp=35,noincfock,novaracc,vshift=500,xqc)
 ----------------------------------------------------------------------

 ----------
 H28 C36 N2
 ----------
 Symbolic Z-matrix:
 Charge =  0 Multiplicity = 1

                         Standard orientation:
 ---------------------------------------------------------------------
 Center     Atomic      Atomic             Coordinates (Angstroms)
 Number     Number       Type             X           Y           Z
 ---------------------------------------------------------------------
      1          6           0       -2.849999   -1.125861   -0.415638
      2          6           0       -3.563139   -0.000026    0.000017
      3          6           0       -1.464492   -1.123667   -0.405534
      4          6           0       -2.850033    1.125752    0.415809
      5          6           0       -0.741288   -0.000047    0.000195
      6          6           0       -1.464504    1.123547    0.405879
      7          1           0       -0.931596   -2.005844   -0.756198
      8          1           0       -3.391048    2.006254    0.754990
      9          1           0       -0.931669    2.005728    0.756629
     10          6           0        0.741437   -0.000073    0.000217
     11          6           0        1.464635    1.123165   -0.406556
     12          6           0        1.464638   -1.123302    0.406976
     13          6           0        2.850149    1.125343   -0.416610
     14          6           0        2.850163   -1.125491    0.416935
     15          6           0        3.563257   -0.000095    0.000116
     16          1           0        0.931751    2.005025   -0.758038
     17          1           0        0.931783   -2.005140    0.758553
     18          1           0        3.391193    2.005527   -0.756576
     19          1           0        3.391211   -2.005669    0.756913
     20          1           0       -3.391005   -2.006357   -0.754845
     21          7           0        4.978430   -0.000102    0.000065
     22          6           0        5.687099   -1.154578   -0.414287
     23          6           0        6.831881   -1.566674    0.271150
     24          6           0        5.251323   -1.896933   -1.513908
     25          6           0        7.528311   -2.692826   -0.143324
     26          6           0        5.943392   -3.032223   -1.910440
     27          6           0        7.087522   -3.435368   -1.232277
     28          1           0        7.173684   -0.995181    1.131117
     29          1           0        4.363437   -1.577947   -2.055099
     30          1           0        8.419174   -2.999763    0.401550
     31          1           0        5.589860   -3.599797   -2.769285
     32          1           0        7.631852   -4.321852   -1.550225
     33          6           0        5.687025    1.154532    0.414292
     34          6           0        6.831191    1.567225   -0.271802
     35          6           0        5.251707    1.896381    1.514415
     36          6           0        7.527485    2.693516    0.142525
     37          6           0        5.943620    3.031828    1.910808
     38          6           0        7.087137    3.435581    1.231989
     39          1           0        7.172616    0.996083   -1.132151
     40          1           0        4.364291    1.576910    2.056093
     41          1           0        8.417875    3.000945   -0.402845
     42          1           0        5.590451    3.599029    2.770050
     43          1           0        7.631350    4.322181    1.549815
     44          7           0       -4.978266    0.000020   -0.000103
     45          6           0       -5.686990    1.154558   -0.414335
     46          6           0       -6.831289    1.566980    0.271699
     47          6           0       -5.251761    1.896543   -1.514410
     48          6           0       -7.527834    2.693112   -0.142653
     49          6           0       -5.943923    3.031822   -1.910819
     50          6           0       -7.087590    3.435293   -1.232069
     51          1           0       -7.172649    0.995729    1.132000
     52          1           0       -4.364233    1.577285   -2.056034
     53          1           0       -8.418333    3.000297    0.402674
     54          1           0       -5.590850    3.599137   -2.770027
     55          1           0       -7.631979    4.321768   -1.549941
     56          6           0       -5.687017   -1.154516    0.414141
     57          6           0       -6.831068   -1.567191   -0.272109
     58          6           0       -5.251977   -1.896199    1.514492
     59          6           0       -7.527566   -2.693348    0.142281
     60          6           0       -5.944079   -3.031486    1.910953
     61          6           0       -7.087509   -3.435246    1.231958
     62          1           0       -7.172277   -0.996155   -1.132614
     63          1           0       -4.364636   -1.576682    2.056275
     64          1           0       -8.417864   -3.000787   -0.403227
     65          1           0       -5.591165   -3.598572    2.770374
     66          1           0       -7.631874   -4.321730    1.549857
 ---------------------------------------------------------------------

 SCF Done:  E(RLC-wHPBE) =  -1497.09798562     A.U. after   13 cycles

 The electronic state is 1-A.
 Alpha  occ. eigenvalues --  -14.09411 -14.09410 -10.00037 -10.00036 -10.00036
 Alpha  occ. eigenvalues --  -10.00035  -9.99950  -9.99949  -9.96633  -9.96619
 Alpha  occ. eigenvalues --   -9.96039  -9.96039  -9.96038  -9.96038  -9.96037
 Alpha  occ. eigenvalues --   -9.96037  -9.96036  -9.96035  -9.95969  -9.95968
 Alpha  occ. eigenvalues --   -9.95967  -9.95965  -9.95801  -9.95800  -9.95800
 Alpha  occ. eigenvalues --   -9.95799  -9.95789  -9.95788  -9.95788  -9.95786
 Alpha  occ. eigenvalues --   -9.95784  -9.95784  -9.95783  -9.95782  -9.95573
 Alpha  occ. eigenvalues --   -9.95572  -9.95572  -9.95570  -0.96538  -0.96534
 Alpha  occ. eigenvalues --   -0.86985  -0.85969  -0.85968  -0.85679  -0.84507
 Alpha  occ. eigenvalues --   -0.83674  -0.78518  -0.76690  -0.76617  -0.75970
 Alpha  occ. eigenvalues --   -0.75410  -0.75310  -0.75095  -0.75077  -0.74805
 Alpha  occ. eigenvalues --   -0.74563  -0.72514  -0.70525  -0.65574  -0.64835
 Alpha  occ. eigenvalues --   -0.64274  -0.63335  -0.62816  -0.61916  -0.61879
 Alpha  occ. eigenvalues --   -0.61773  -0.60885  -0.60822  -0.59139  -0.58511
 Alpha  occ. eigenvalues --   -0.56209  -0.56051  -0.55832  -0.55617  -0.53278
 Alpha  occ. eigenvalues --   -0.51795  -0.50897  -0.50774  -0.50235  -0.49674
 Alpha  occ. eigenvalues --   -0.48954  -0.47987  -0.47715  -0.47523  -0.47031
 Alpha  occ. eigenvalues --   -0.46573  -0.46547  -0.46167  -0.45748  -0.45718
 Alpha  occ. eigenvalues --   -0.45585  -0.44927  -0.44745  -0.44690  -0.44559
 Alpha  occ. eigenvalues --   -0.44555  -0.44247  -0.42755  -0.41335  -0.41201
 Alpha  occ. eigenvalues --   -0.40922  -0.40777  -0.40736  -0.40415  -0.39374
 Alpha  occ. eigenvalues --   -0.39050  -0.38557  -0.38386  -0.38035  -0.37948
 Alpha  occ. eigenvalues --   -0.37777  -0.37184  -0.36958  -0.36793  -0.36586
 Alpha  occ. eigenvalues --   -0.34870  -0.34194  -0.31779  -0.30638  -0.30614
 Alpha  occ. eigenvalues --   -0.30568  -0.30563  -0.29751  -0.29505  -0.29457
 Alpha  occ. eigenvalues --   -0.29406  -0.28675  -0.23455  -0.22087
 Alpha virt. eigenvalues --   -0.00748   0.00511   0.00572   0.00991   0.00994
 Alpha virt. eigenvalues --    0.02451   0.02662   0.02841   0.02891   0.02904
 Alpha virt. eigenvalues --    0.05054   0.06716   0.08432   0.08642   0.09413

 Mulliken charges:
               1
     1  C   -0.121432
     2  C   -0.035205
     3  C   -0.144887
     4  C   -0.121459
     5  C    0.034902
     6  C   -0.144875
     7  H    0.119531
     8  H    0.138970
     9  H    0.119529
    10  C    0.034991
    11  C   -0.144895
    12  C   -0.144888
    13  C   -0.121114
    14  C   -0.121225
    15  C   -0.035797
    16  H    0.119532
    17  H    0.119534
    18  H    0.138896
    19  H    0.138918
    20  H    0.138963
    21  N    0.008801
    22  C   -0.057733
    23  C   -0.111567
    24  C   -0.105964
    25  C   -0.106377
    26  C   -0.106469
    27  C   -0.097151
    28  H    0.143713
    29  H    0.141973
    30  H    0.101571
    31  H    0.101538
    32  H    0.100102
    33  C   -0.058137
    34  C   -0.111401
    35  C   -0.105747
    36  C   -0.106389
    37  C   -0.106467
    38  C   -0.097109
    39  H    0.143695
    40  H    0.141914
    41  H    0.101578
    42  H    0.101545
    43  H    0.100112
    44  N    0.008795
    45  C   -0.058114
    46  C   -0.111296
    47  C   -0.105878
    48  C   -0.106371
    49  C   -0.106470
    50  C   -0.097115
    51  H    0.143652
    52  H    0.141959
    53  H    0.101579
    54  H    0.101546
    55  H    0.100115
    56  C   -0.058312
    57  C   -0.111227
    58  C   -0.105759
    59  C   -0.106381
    60  C   -0.106479
    61  C   -0.097096
    62  H    0.143636
    63  H    0.141949
    64  H    0.101583
    65  H    0.101549
    66  H    0.100118
 Sum of Mulliken charges =  -0.00000

 Dipole moment (field-independent basis, Debye):
    X=             -0.0039    Y=              0.0007    Z=              0.0005  Tot=              0.0040
 Quadrupole moment (field-independent basis, Debye-Ang):
   XX=           -205.3293   YY=           -207.6180   ZZ=           -218.4301
   XY=              0.0143   XZ=              0.0007   YZ=             -0.0051

 1\1\GINC-CASCADEB019\SP\RLC-wHPBE\TZVP\C36H28N2\RDU230\18-Jan-2021\0\\
 #P LC-wHPBE/TZVP iop(3/107=0126900000, 3/108=0126900000) scf=(conver=6
 ,fermi,ndamp=35,noincfock,novaracc,vshift=500,xqc)\\H28 C36 N2\\0,1\C,
 0,2.849999,-1.125861,0.415638\C,0,3.563139,-0.000026,-0.000017\C,0,1.4
 64492,-1.123667,0.405534\C,0,2.850033,1.125752,-0.415809\C,0,0.741288,
 -0.000047,-0.000195\C,0,1.464504,1.123547,-0.405879\H,0,0.931596,-2.00
 5844,0.756198\H,0,3.391048,2.006254,-0.75499\H,0,0.931669,2.005728,-0.
 756629\C,0,-0.741437,-0.000073,-0.000217\C,0,-1.464635,1.123165,0.4065

 Normal termination of Gaussian 16 at Mon Jan 18 00:06:08 2021.
