 Gaussian 16, Revision A.03,
 Gaussian 16:  EM64L-G16RevA.03 25-Dec-2016

 ----------------------------------------------------------------------
 #P LC-wHPBE/TZVP iop(3/107=0177400000, 3/108=0177400000) scf=(conver=6
 ,fermi,ndamp=35,noincfock,novaracc,vshift=500,xqc)
 ----------------------------------------------------------------------

 ----------
 H28 C36 N2
 ----------
 Symbolic Z-matrix:
 Charge =  1 Multiplicity = 2

                         Standard orientation:
 ---------------------------------------------------------------------
 Center     Atomic      Atomic             Coordinates (Angstroms)
 Number     Number       Type             X           Y           Z
 ---------------------------------------------------------------------
      1          6           0       -2.849999   -1.125861   -0.415638
      2          6           0       -3.563139   -0.000026    0.000017
      3          6           0       -1.464492   -1.123667   -0.405534
      4          6           0       -2.850033    1.125752    0.415809
      5          6           0       -0.741288   -0.000047    0.000195
      6          6           0       -1.464504    1.123547    0.405879
      7          1           0       -0.931596   -2.005844   -0.756198
      8          1           0       -3.391048    2.006254    0.754990
      9          1           0       -0.931669    2.005728    0.756629
     10          6           0        0.741437   -0.000073    0.000217
     11          6           0        1.464635    1.123165   -0.406556
     12          6           0        1.464638   -1.123302    0.406976
     13          6           0        2.850149    1.125343   -0.416610
     14          6           0        2.850163   -1.125491    0.416935
     15          6           0        3.563257   -0.000095    0.000116
     16          1           0        0.931751    2.005025   -0.758038
     17          1           0        0.931783   -2.005140    0.758553
     18          1           0        3.391193    2.005527   -0.756576
     19          1           0        3.391211   -2.005669    0.756913
     20          1           0       -3.391005   -2.006357   -0.754845
     21          7           0        4.978430   -0.000102    0.000065
     22          6           0        5.687099   -1.154578   -0.414287
     23          6           0        6.831881   -1.566674    0.271150
     24          6           0        5.251323   -1.896933   -1.513908
     25          6           0        7.528311   -2.692826   -0.143324
     26          6           0        5.943392   -3.032223   -1.910440
     27          6           0        7.087522   -3.435368   -1.232277
     28          1           0        7.173684   -0.995181    1.131117
     29          1           0        4.363437   -1.577947   -2.055099
     30          1           0        8.419174   -2.999763    0.401550
     31          1           0        5.589860   -3.599797   -2.769285
     32          1           0        7.631852   -4.321852   -1.550225
     33          6           0        5.687025    1.154532    0.414292
     34          6           0        6.831191    1.567225   -0.271802
     35          6           0        5.251707    1.896381    1.514415
     36          6           0        7.527485    2.693516    0.142525
     37          6           0        5.943620    3.031828    1.910808
     38          6           0        7.087137    3.435581    1.231989
     39          1           0        7.172616    0.996083   -1.132151
     40          1           0        4.364291    1.576910    2.056093
     41          1           0        8.417875    3.000945   -0.402845
     42          1           0        5.590451    3.599029    2.770050
     43          1           0        7.631350    4.322181    1.549815
     44          7           0       -4.978266    0.000020   -0.000103
     45          6           0       -5.686990    1.154558   -0.414335
     46          6           0       -6.831289    1.566980    0.271699
     47          6           0       -5.251761    1.896543   -1.514410
     48          6           0       -7.527834    2.693112   -0.142653
     49          6           0       -5.943923    3.031822   -1.910819
     50          6           0       -7.087590    3.435293   -1.232069
     51          1           0       -7.172649    0.995729    1.132000
     52          1           0       -4.364233    1.577285   -2.056034
     53          1           0       -8.418333    3.000297    0.402674
     54          1           0       -5.590850    3.599137   -2.770027
     55          1           0       -7.631979    4.321768   -1.549941
     56          6           0       -5.687017   -1.154516    0.414141
     57          6           0       -6.831068   -1.567191   -0.272109
     58          6           0       -5.251977   -1.896199    1.514492
     59          6           0       -7.527566   -2.693348    0.142281
     60          6           0       -5.944079   -3.031486    1.910953
     61          6           0       -7.087509   -3.435246    1.231958
     62          1           0       -7.172277   -0.996155   -1.132614
     63          1           0       -4.364636   -1.576682    2.056275
     64          1           0       -8.417864   -3.000787   -0.403227
     65          1           0       -5.591165   -3.598572    2.770374
     66          1           0       -7.631874   -4.321730    1.549857
 ---------------------------------------------------------------------

 SCF Done:  E(ULC-wHPBE) =  -1496.96590825     A.U. after   22 cycles

 The electronic state is 2-A.
 Alpha  occ. eigenvalues --  -14.25353 -14.25353 -10.14670 -10.14667 -10.12973
 Alpha  occ. eigenvalues --  -10.12972 -10.12971 -10.12970 -10.11314 -10.11301
 Alpha  occ. eigenvalues --  -10.10044 -10.10044 -10.10041 -10.10040 -10.10002
 Alpha  occ. eigenvalues --  -10.10002 -10.10002 -10.10002 -10.08618 -10.08617
 Alpha  occ. eigenvalues --  -10.08617 -10.08616 -10.08454 -10.08454 -10.08454
 Alpha  occ. eigenvalues --  -10.08453 -10.08044 -10.08044 -10.08044 -10.08044
 Alpha  occ. eigenvalues --  -10.07971 -10.07971 -10.07971 -10.07971 -10.07863
 Alpha  occ. eigenvalues --  -10.07863 -10.07863 -10.07863  -1.11310  -1.11306
 Alpha  occ. eigenvalues --   -1.01380  -0.99630  -0.98677  -0.98677  -0.97396
 Alpha  occ. eigenvalues --   -0.96867  -0.92688  -0.90094  -0.89750  -0.89274
 Alpha  occ. eigenvalues --   -0.88809  -0.88476  -0.87784  -0.87446  -0.87445
 Alpha  occ. eigenvalues --   -0.87363  -0.85523  -0.83899  -0.79057  -0.78402
 Alpha  occ. eigenvalues --   -0.77265  -0.76343  -0.75895  -0.74720  -0.74397
 Alpha  occ. eigenvalues --   -0.74079  -0.73927  -0.73589  -0.71752  -0.71417
 Alpha  occ. eigenvalues --   -0.69430  -0.68669  -0.68485  -0.68244  -0.66366
 Alpha  occ. eigenvalues --   -0.64037  -0.63909  -0.63386  -0.62517  -0.62222
 Alpha  occ. eigenvalues --   -0.62065  -0.60550  -0.60415  -0.59825  -0.59713
 Alpha  occ. eigenvalues --   -0.59656  -0.58904  -0.58220  -0.57959  -0.57844
 Alpha  occ. eigenvalues --   -0.57756  -0.57682  -0.57627  -0.56573  -0.56440
 Alpha  occ. eigenvalues --   -0.56236  -0.56235  -0.55968  -0.54918  -0.54417
 Alpha  occ. eigenvalues --   -0.53573  -0.53312  -0.52974  -0.52944  -0.51548
 Alpha  occ. eigenvalues --   -0.51342  -0.50853  -0.50547  -0.50321  -0.49943
 Alpha  occ. eigenvalues --   -0.49908  -0.49182  -0.48850  -0.48484  -0.48456
 Alpha  occ. eigenvalues --   -0.47852  -0.46954  -0.44557  -0.43175  -0.43151
 Alpha  occ. eigenvalues --   -0.42133  -0.42127  -0.41812  -0.41305  -0.41285
 Alpha  occ. eigenvalues --   -0.40838  -0.40676  -0.36223  -0.35035
 Alpha virt. eigenvalues --   -0.10335  -0.08120  -0.07994  -0.06988  -0.06978
 Alpha virt. eigenvalues --   -0.06325  -0.05702  -0.05582  -0.04784  -0.04752
 Alpha virt. eigenvalues --   -0.03252  -0.02105   0.00866   0.01494   0.02535

  Beta  occ. eigenvalues --  -14.24951 -14.24951 -10.14627 -10.14624 -10.13004
  Beta  occ. eigenvalues --  -10.13003 -10.13003 -10.13002 -10.11230 -10.11216
  Beta  occ. eigenvalues --  -10.10027 -10.10026 -10.10024 -10.10022 -10.09962
  Beta  occ. eigenvalues --  -10.09962 -10.09962 -10.09962 -10.08549 -10.08549
  Beta  occ. eigenvalues --  -10.08549 -10.08548 -10.08391 -10.08390 -10.08390
  Beta  occ. eigenvalues --  -10.08389 -10.08072 -10.08071 -10.08071 -10.08071
  Beta  occ. eigenvalues --  -10.07996 -10.07995 -10.07995 -10.07995 -10.07793
  Beta  occ. eigenvalues --  -10.07793 -10.07793 -10.07793  -1.10812  -1.10807
  Beta  occ. eigenvalues --   -1.01207  -0.99473  -0.98593  -0.98592  -0.97268
  Beta  occ. eigenvalues --   -0.96722  -0.92473  -0.90019  -0.89668  -0.89126
  Beta  occ. eigenvalues --   -0.88725  -0.88396  -0.87712  -0.87381  -0.87380
  Beta  occ. eigenvalues --   -0.87273  -0.85333  -0.83594  -0.78950  -0.78260
  Beta  occ. eigenvalues --   -0.77130  -0.76222  -0.75760  -0.74571  -0.74339
  Beta  occ. eigenvalues --   -0.73994  -0.73845  -0.73514  -0.71664  -0.71333
  Beta  occ. eigenvalues --   -0.69359  -0.68575  -0.68412  -0.68166  -0.66277
  Beta  occ. eigenvalues --   -0.63879  -0.63821  -0.63295  -0.62403  -0.62040
  Beta  occ. eigenvalues --   -0.61733  -0.60475  -0.60276  -0.59747  -0.59626
  Beta  occ. eigenvalues --   -0.59615  -0.58833  -0.58175  -0.57923  -0.57749
  Beta  occ. eigenvalues --   -0.57706  -0.57612  -0.57577  -0.56504  -0.56399
  Beta  occ. eigenvalues --   -0.56203  -0.56202  -0.55872  -0.54671  -0.54066
  Beta  occ. eigenvalues --   -0.53276  -0.53072  -0.52786  -0.52757  -0.51490
  Beta  occ. eigenvalues --   -0.51213  -0.50494  -0.50465  -0.50269  -0.49843
  Beta  occ. eigenvalues --   -0.49788  -0.48974  -0.48733  -0.48438  -0.48409
  Beta  occ. eigenvalues --   -0.47562  -0.46329  -0.43790  -0.43027  -0.43016
  Beta  occ. eigenvalues --   -0.41752  -0.41745  -0.41028  -0.41024  -0.40989
  Beta  occ. eigenvalues --   -0.40674  -0.39910  -0.31917
  Beta virt. eigenvalues --   -0.23533  -0.09984  -0.07866  -0.07712  -0.06704
  Beta virt. eigenvalues --   -0.06688  -0.05880  -0.05484  -0.05300  -0.04589
  Beta virt. eigenvalues --   -0.04525  -0.02698  -0.01489   0.00904   0.01537

 Mulliken charges and spin densities:
               1          2
     1  C   -0.108679   0.028444
     2  C   -0.040574   0.042821
     3  C   -0.134374  -0.000410
     4  C   -0.108710   0.028454
     5  C    0.034873   0.057423
     6  C   -0.134365  -0.000413
     7  H    0.148911  -0.000246
     8  H    0.170046  -0.001232
     9  H    0.148910  -0.000246
    10  C    0.034965   0.057344
    11  C   -0.134395  -0.000370
    12  C   -0.134391  -0.000381
    13  C   -0.108352   0.028389
    14  C   -0.108469   0.028401
    15  C   -0.041183   0.042839
    16  H    0.148912  -0.000247
    17  H    0.148914  -0.000247
    18  H    0.169965  -0.001228
    19  H    0.169990  -0.001229
    20  H    0.170038  -0.001231
    21  N    0.040263   0.182064
    22  C   -0.063843  -0.014483
    23  C   -0.101060   0.047371
    24  C   -0.099170   0.047476
    25  C   -0.107783  -0.026328
    26  C   -0.108020  -0.028196
    27  C   -0.082157   0.061062
    28  H    0.167618  -0.001950
    29  H    0.157123  -0.002194
    30  H    0.132176   0.001247
    31  H    0.128969   0.001472
    32  H    0.133109  -0.003088
    33  C   -0.064252  -0.014470
    34  C   -0.100905   0.047322
    35  C   -0.098966   0.047431
    36  C   -0.107800  -0.026301
    37  C   -0.108022  -0.028168
    38  C   -0.082126   0.060994
    39  H    0.167591  -0.001948
    40  H    0.157065  -0.002191
    41  H    0.132176   0.001246
    42  H    0.128972   0.001471
    43  H    0.133111  -0.003084
    44  N    0.040265   0.182066
    45  C   -0.064236  -0.014473
    46  C   -0.100802   0.047321
    47  C   -0.099097   0.047423
    48  C   -0.107781  -0.026296
    49  C   -0.108024  -0.028164
    50  C   -0.082131   0.060985
    51  H    0.167547  -0.001948
    52  H    0.157112  -0.002191
    53  H    0.132175   0.001246
    54  H    0.128970   0.001471
    55  H    0.133110  -0.003084
    56  C   -0.064438  -0.014467
    57  C   -0.100734   0.047303
    58  C   -0.098985   0.047403
    59  C   -0.107794  -0.026286
    60  C   -0.108035  -0.028153
    61  C   -0.082115   0.060959
    62  H    0.167530  -0.001948
    63  H    0.157100  -0.002190
    64  H    0.132176   0.001246
    65  H    0.128971   0.001471
    66  H    0.133110  -0.003082
 Sum of Mulliken charges =   1.00000   1.00000

 Dipole moment (field-independent basis, Debye):
    X=             -0.0005    Y=              0.0003    Z=              0.0001  Tot=              0.0005
 Quadrupole moment (field-independent basis, Debye-Ang):
   XX=            -42.0664   YY=           -172.7962   ZZ=           -206.5126
   XY=              0.0062   XZ=             -0.0006   YZ=             -0.0034

 Normal termination of Gaussian 16 at Mon Jan 18 06:38:18 2021.
