 Gaussian 16, Revision A.03,
 Gaussian 16:  EM64L-G16RevA.03 25-Dec-2016

 ----------------------------------------------------------------------
 #P LC-wHPBE/TZVP iop(3/107=0181400000, 3/108=0181400000) scf=(conver=6
 ,fermi,ndamp=35,noincfock,novaracc,vshift=500,xqc)
 ----------------------------------------------------------------------

 ----------
 H28 C36 N2
 ----------
 Symbolic Z-matrix:
 Charge =  1 Multiplicity = 2

                         Standard orientation:
 ---------------------------------------------------------------------
 Center     Atomic      Atomic             Coordinates (Angstroms)
 Number     Number       Type             X           Y           Z
 ---------------------------------------------------------------------
      1          6           0       -2.849999   -1.125861   -0.415638
      2          6           0       -3.563139   -0.000026    0.000017
      3          6           0       -1.464492   -1.123667   -0.405534
      4          6           0       -2.850033    1.125752    0.415809
      5          6           0       -0.741288   -0.000047    0.000195
      6          6           0       -1.464504    1.123547    0.405879
      7          1           0       -0.931596   -2.005844   -0.756198
      8          1           0       -3.391048    2.006254    0.754990
      9          1           0       -0.931669    2.005728    0.756629
     10          6           0        0.741437   -0.000073    0.000217
     11          6           0        1.464635    1.123165   -0.406556
     12          6           0        1.464638   -1.123302    0.406976
     13          6           0        2.850149    1.125343   -0.416610
     14          6           0        2.850163   -1.125491    0.416935
     15          6           0        3.563257   -0.000095    0.000116
     16          1           0        0.931751    2.005025   -0.758038
     17          1           0        0.931783   -2.005140    0.758553
     18          1           0        3.391193    2.005527   -0.756576
     19          1           0        3.391211   -2.005669    0.756913
     20          1           0       -3.391005   -2.006357   -0.754845
     21          7           0        4.978430   -0.000102    0.000065
     22          6           0        5.687099   -1.154578   -0.414287
     23          6           0        6.831881   -1.566674    0.271150
     24          6           0        5.251323   -1.896933   -1.513908
     25          6           0        7.528311   -2.692826   -0.143324
     26          6           0        5.943392   -3.032223   -1.910440
     27          6           0        7.087522   -3.435368   -1.232277
     28          1           0        7.173684   -0.995181    1.131117
     29          1           0        4.363437   -1.577947   -2.055099
     30          1           0        8.419174   -2.999763    0.401550
     31          1           0        5.589860   -3.599797   -2.769285
     32          1           0        7.631852   -4.321852   -1.550225
     33          6           0        5.687025    1.154532    0.414292
     34          6           0        6.831191    1.567225   -0.271802
     35          6           0        5.251707    1.896381    1.514415
     36          6           0        7.527485    2.693516    0.142525
     37          6           0        5.943620    3.031828    1.910808
     38          6           0        7.087137    3.435581    1.231989
     39          1           0        7.172616    0.996083   -1.132151
     40          1           0        4.364291    1.576910    2.056093
     41          1           0        8.417875    3.000945   -0.402845
     42          1           0        5.590451    3.599029    2.770050
     43          1           0        7.631350    4.322181    1.549815
     44          7           0       -4.978266    0.000020   -0.000103
     45          6           0       -5.686990    1.154558   -0.414335
     46          6           0       -6.831289    1.566980    0.271699
     47          6           0       -5.251761    1.896543   -1.514410
     48          6           0       -7.527834    2.693112   -0.142653
     49          6           0       -5.943923    3.031822   -1.910819
     50          6           0       -7.087590    3.435293   -1.232069
     51          1           0       -7.172649    0.995729    1.132000
     52          1           0       -4.364233    1.577285   -2.056034
     53          1           0       -8.418333    3.000297    0.402674
     54          1           0       -5.590850    3.599137   -2.770027
     55          1           0       -7.631979    4.321768   -1.549941
     56          6           0       -5.687017   -1.154516    0.414141
     57          6           0       -6.831068   -1.567191   -0.272109
     58          6           0       -5.251977   -1.896199    1.514492
     59          6           0       -7.527566   -2.693348    0.142281
     60          6           0       -5.944079   -3.031486    1.910953
     61          6           0       -7.087509   -3.435246    1.231958
     62          1           0       -7.172277   -0.996155   -1.132614
     63          1           0       -4.364636   -1.576682    2.056275
     64          1           0       -8.417864   -3.000787   -0.403227
     65          1           0       -5.591165   -3.598572    2.770374
     66          1           0       -7.631874   -4.321730    1.549857
 ---------------------------------------------------------------------

 SCF Done:  E(ULC-wHPBE) =  -1496.97359603     A.U. after   22 cycles

 The electronic state is 2-A.
 Alpha  occ. eigenvalues --  -14.25578 -14.25577 -10.14913 -10.14911 -10.13198
 Alpha  occ. eigenvalues --  -10.13197 -10.13196 -10.13196 -10.11556 -10.11543
 Alpha  occ. eigenvalues --  -10.10282 -10.10281 -10.10278 -10.10277 -10.10239
 Alpha  occ. eigenvalues --  -10.10239 -10.10238 -10.10238 -10.08842 -10.08841
 Alpha  occ. eigenvalues --  -10.08841 -10.08841 -10.08677 -10.08677 -10.08677
 Alpha  occ. eigenvalues --  -10.08676 -10.08267 -10.08266 -10.08266 -10.08266
 Alpha  occ. eigenvalues --  -10.08193 -10.08193 -10.08193 -10.08193 -10.08086
 Alpha  occ. eigenvalues --  -10.08085 -10.08085 -10.08085  -1.11551  -1.11547
 Alpha  occ. eigenvalues --   -1.01633  -0.99878  -0.98914  -0.98914  -0.97633
 Alpha  occ. eigenvalues --   -0.97104  -0.92930  -0.90333  -0.89985  -0.89508
 Alpha  occ. eigenvalues --   -0.89039  -0.88708  -0.88012  -0.87673  -0.87672
 Alpha  occ. eigenvalues --   -0.87591  -0.85748  -0.84124  -0.79275  -0.78625
 Alpha  occ. eigenvalues --   -0.77480  -0.76556  -0.76108  -0.74935  -0.74608
 Alpha  occ. eigenvalues --   -0.74288  -0.74136  -0.73799  -0.71960  -0.71626
 Alpha  occ. eigenvalues --   -0.69639  -0.68871  -0.68686  -0.68444  -0.66568
 Alpha  occ. eigenvalues --   -0.64238  -0.64104  -0.63579  -0.62710  -0.62413
 Alpha  occ. eigenvalues --   -0.62261  -0.60746  -0.60603  -0.60019  -0.59901
 Alpha  occ. eigenvalues --   -0.59841  -0.59087  -0.58411  -0.58142  -0.58032
 Alpha  occ. eigenvalues --   -0.57937  -0.57865  -0.57816  -0.56755  -0.56621
 Alpha  occ. eigenvalues --   -0.56414  -0.56413  -0.56147  -0.55115  -0.54609
 Alpha  occ. eigenvalues --   -0.53759  -0.53502  -0.53164  -0.53134  -0.51720
 Alpha  occ. eigenvalues --   -0.51519  -0.51032  -0.50712  -0.50486  -0.50107
 Alpha  occ. eigenvalues --   -0.50073  -0.49348  -0.49015  -0.48644  -0.48616
 Alpha  occ. eigenvalues --   -0.48018  -0.47120  -0.44708  -0.43322  -0.43296
 Alpha  occ. eigenvalues --   -0.42267  -0.42261  -0.41948  -0.41438  -0.41419
 Alpha  occ. eigenvalues --   -0.40970  -0.40807  -0.36343  -0.35153
 Alpha virt. eigenvalues --   -0.10249  -0.08019  -0.07893  -0.06881  -0.06870
 Alpha virt. eigenvalues --   -0.06222  -0.05589  -0.05469  -0.04666  -0.04634
 Alpha virt. eigenvalues --   -0.03136  -0.01988   0.00968   0.01599   0.02640

  Beta  occ. eigenvalues --  -14.25174 -14.25174 -10.14870 -10.14867 -10.13230
  Beta  occ. eigenvalues --  -10.13229 -10.13229 -10.13228 -10.11472 -10.11458
  Beta  occ. eigenvalues --  -10.10264 -10.10264 -10.10262 -10.10260 -10.10198
  Beta  occ. eigenvalues --  -10.10198 -10.10198 -10.10198 -10.08773 -10.08773
  Beta  occ. eigenvalues --  -10.08772 -10.08772 -10.08613 -10.08613 -10.08613
  Beta  occ. eigenvalues --  -10.08612 -10.08294 -10.08294 -10.08294 -10.08294
  Beta  occ. eigenvalues --  -10.08218 -10.08218 -10.08218 -10.08218 -10.08016
  Beta  occ. eigenvalues --  -10.08015 -10.08015 -10.08015  -1.11051  -1.11046
  Beta  occ. eigenvalues --   -1.01459  -0.99720  -0.98829  -0.98829  -0.97505
  Beta  occ. eigenvalues --   -0.96958  -0.92712  -0.90258  -0.89903  -0.89358
  Beta  occ. eigenvalues --   -0.88956  -0.88629  -0.87940  -0.87608  -0.87607
  Beta  occ. eigenvalues --   -0.87501  -0.85557  -0.83816  -0.79168  -0.78482
  Beta  occ. eigenvalues --   -0.77344  -0.76435  -0.75972  -0.74786  -0.74550
  Beta  occ. eigenvalues --   -0.74202  -0.74055  -0.73725  -0.71871  -0.71543
  Beta  occ. eigenvalues --   -0.69567  -0.68777  -0.68613  -0.68366  -0.66479
  Beta  occ. eigenvalues --   -0.64079  -0.64015  -0.63488  -0.62595  -0.62230
  Beta  occ. eigenvalues --   -0.61928  -0.60669  -0.60464  -0.59940  -0.59813
  Beta  occ. eigenvalues --   -0.59800  -0.59016  -0.58366  -0.58106  -0.57936
  Beta  occ. eigenvalues --   -0.57887  -0.57793  -0.57764  -0.56686  -0.56579
  Beta  occ. eigenvalues --   -0.56380  -0.56379  -0.56051  -0.54868  -0.54255
  Beta  occ. eigenvalues --   -0.53462  -0.53261  -0.52974  -0.52945  -0.51662
  Beta  occ. eigenvalues --   -0.51387  -0.50658  -0.50636  -0.50434  -0.50007
  Beta  occ. eigenvalues --   -0.49951  -0.49136  -0.48896  -0.48598  -0.48569
  Beta  occ. eigenvalues --   -0.47726  -0.46483  -0.43920  -0.43176  -0.43164
  Beta  occ. eigenvalues --   -0.41882  -0.41876  -0.41153  -0.41153  -0.41118
  Beta  occ. eigenvalues --   -0.40805  -0.40014  -0.31972
  Beta virt. eigenvalues --   -0.23537  -0.09903  -0.07760  -0.07606  -0.06595
  Beta virt. eigenvalues --   -0.06580  -0.05773  -0.05369  -0.05184  -0.04469
  Beta virt. eigenvalues --   -0.04405  -0.02573  -0.01359   0.01006   0.01642

 Mulliken charges and spin densities:
               1          2
     1  C   -0.108714   0.028300
     2  C   -0.040810   0.043327
     3  C   -0.134748  -0.000420
     4  C   -0.108744   0.028310
     5  C    0.034716   0.057682
     6  C   -0.134739  -0.000423
     7  H    0.149354  -0.000254
     8  H    0.170574  -0.001228
     9  H    0.149353  -0.000254
    10  C    0.034809   0.057602
    11  C   -0.134770  -0.000379
    12  C   -0.134766  -0.000391
    13  C   -0.108386   0.028244
    14  C   -0.108502   0.028256
    15  C   -0.041419   0.043346
    16  H    0.149355  -0.000256
    17  H    0.149357  -0.000256
    18  H    0.170493  -0.001225
    19  H    0.170517  -0.001226
    20  H    0.170566  -0.001227
    21  N    0.039337   0.182652
    22  C   -0.063673  -0.014988
    23  C   -0.101302   0.047645
    24  C   -0.099451   0.047737
    25  C   -0.108204  -0.026698
    26  C   -0.108443  -0.028589
    27  C   -0.082568   0.061274
    28  H    0.168055  -0.001959
    29  H    0.157525  -0.002207
    30  H    0.132463   0.001260
    31  H    0.129252   0.001488
    32  H    0.133405  -0.003093
    33  C   -0.064082  -0.014974
    34  C   -0.101147   0.047597
    35  C   -0.099247   0.047691
    36  C   -0.108221  -0.026671
    37  C   -0.108445  -0.028561
    38  C   -0.082537   0.061206
    39  H    0.168028  -0.001957
    40  H    0.157467  -0.002205
    41  H    0.132463   0.001260
    42  H    0.129255   0.001487
    43  H    0.133407  -0.003089
    44  N    0.039340   0.182656
    45  C   -0.064067  -0.014977
    46  C   -0.101044   0.047596
    47  C   -0.099377   0.047684
    48  C   -0.108202  -0.026667
    49  C   -0.108447  -0.028557
    50  C   -0.082542   0.061197
    51  H    0.167984  -0.001957
    52  H    0.157515  -0.002204
    53  H    0.132462   0.001260
    54  H    0.129254   0.001486
    55  H    0.133406  -0.003089
    56  C   -0.064269  -0.014971
    57  C   -0.100976   0.047578
    58  C   -0.099265   0.047663
    59  C   -0.108215  -0.026656
    60  C   -0.108458  -0.028546
    61  C   -0.082526   0.061171
    62  H    0.167967  -0.001956
    63  H    0.157503  -0.002204
    64  H    0.132463   0.001259
    65  H    0.129255   0.001486
    66  H    0.133407  -0.003088
 Sum of Mulliken charges =   1.00000   1.00000

 Dipole moment (field-independent basis, Debye):
    X=             -0.0005    Y=              0.0003    Z=              0.0001  Tot=              0.0006
 Quadrupole moment (field-independent basis, Debye-Ang):
   XX=            -42.1940   YY=           -172.7892   ZZ=           -206.4949
   XY=              0.0062   XZ=             -0.0006   YZ=             -0.0035

 Normal termination of Gaussian 16 at Mon Jan 18 01:19:52 2021.
