 Gaussian 16, Revision A.03,
 Gaussian 16:  EM64L-G16RevA.03 25-Dec-2016

 ----------------------------------------------------------------------
 #P LC-wHPBE/TZVP iop(3/107=0126900000, 3/108=0126900000) scf=(conver=6
 ,fermi,ndamp=35,noincfock,novaracc,vshift=500,xqc)
 ----------------------------------------------------------------------

 ----------
 H28 C36 N2
 ----------
 Symbolic Z-matrix:
 Charge =  1 Multiplicity = 2

                         Standard orientation:
 ---------------------------------------------------------------------
 Center     Atomic      Atomic             Coordinates (Angstroms)
 Number     Number       Type             X           Y           Z
 ---------------------------------------------------------------------
      1          6           0       -2.849999   -1.125861   -0.415638
      2          6           0       -3.563139   -0.000026    0.000017
      3          6           0       -1.464492   -1.123667   -0.405534
      4          6           0       -2.850033    1.125752    0.415809
      5          6           0       -0.741288   -0.000047    0.000195
      6          6           0       -1.464504    1.123547    0.405879
      7          1           0       -0.931596   -2.005844   -0.756198
      8          1           0       -3.391048    2.006254    0.754990
      9          1           0       -0.931669    2.005728    0.756629
     10          6           0        0.741437   -0.000073    0.000217
     11          6           0        1.464635    1.123165   -0.406556
     12          6           0        1.464638   -1.123302    0.406976
     13          6           0        2.850149    1.125343   -0.416610
     14          6           0        2.850163   -1.125491    0.416935
     15          6           0        3.563257   -0.000095    0.000116
     16          1           0        0.931751    2.005025   -0.758038
     17          1           0        0.931783   -2.005140    0.758553
     18          1           0        3.391193    2.005527   -0.756576
     19          1           0        3.391211   -2.005669    0.756913
     20          1           0       -3.391005   -2.006357   -0.754845
     21          7           0        4.978430   -0.000102    0.000065
     22          6           0        5.687099   -1.154578   -0.414287
     23          6           0        6.831881   -1.566674    0.271150
     24          6           0        5.251323   -1.896933   -1.513908
     25          6           0        7.528311   -2.692826   -0.143324
     26          6           0        5.943392   -3.032223   -1.910440
     27          6           0        7.087522   -3.435368   -1.232277
     28          1           0        7.173684   -0.995181    1.131117
     29          1           0        4.363437   -1.577947   -2.055099
     30          1           0        8.419174   -2.999763    0.401550
     31          1           0        5.589860   -3.599797   -2.769285
     32          1           0        7.631852   -4.321852   -1.550225
     33          6           0        5.687025    1.154532    0.414292
     34          6           0        6.831191    1.567225   -0.271802
     35          6           0        5.251707    1.896381    1.514415
     36          6           0        7.527485    2.693516    0.142525
     37          6           0        5.943620    3.031828    1.910808
     38          6           0        7.087137    3.435581    1.231989
     39          1           0        7.172616    0.996083   -1.132151
     40          1           0        4.364291    1.576910    2.056093
     41          1           0        8.417875    3.000945   -0.402845
     42          1           0        5.590451    3.599029    2.770050
     43          1           0        7.631350    4.322181    1.549815
     44          7           0       -4.978266    0.000020   -0.000103
     45          6           0       -5.686990    1.154558   -0.414335
     46          6           0       -6.831289    1.566980    0.271699
     47          6           0       -5.251761    1.896543   -1.514410
     48          6           0       -7.527834    2.693112   -0.142653
     49          6           0       -5.943923    3.031822   -1.910819
     50          6           0       -7.087590    3.435293   -1.232069
     51          1           0       -7.172649    0.995729    1.132000
     52          1           0       -4.364233    1.577285   -2.056034
     53          1           0       -8.418333    3.000297    0.402674
     54          1           0       -5.590850    3.599137   -2.770027
     55          1           0       -7.631979    4.321768   -1.549941
     56          6           0       -5.687017   -1.154516    0.414141
     57          6           0       -6.831068   -1.567191   -0.272109
     58          6           0       -5.251977   -1.896199    1.514492
     59          6           0       -7.527566   -2.693348    0.142281
     60          6           0       -5.944079   -3.031486    1.910953
     61          6           0       -7.087509   -3.435246    1.231958
     62          1           0       -7.172277   -0.996155   -1.132614
     63          1           0       -4.364636   -1.576682    2.056275
     64          1           0       -8.417864   -3.000787   -0.403227
     65          1           0       -5.591165   -3.598572    2.770374
     66          1           0       -7.631874   -4.321730    1.549857
 ---------------------------------------------------------------------

 SCF Done:  E(ULC-wHPBE) =  -1496.86969647     A.U. after   20 cycles

 The electronic state is 2-A.
 Alpha  occ. eigenvalues --  -14.22503 -14.22503 -10.11590 -10.11589 -10.10135
 Alpha  occ. eigenvalues --  -10.10134 -10.10133 -10.10133 -10.08247 -10.08233
 Alpha  occ. eigenvalues --  -10.07047 -10.07046 -10.07044 -10.07043 -10.06997
 Alpha  occ. eigenvalues --  -10.06997 -10.06996 -10.06996 -10.05787 -10.05787
 Alpha  occ. eigenvalues --  -10.05786 -10.05786 -10.05640 -10.05640 -10.05640
 Alpha  occ. eigenvalues --  -10.05640 -10.05235 -10.05235 -10.05235 -10.05235
 Alpha  occ. eigenvalues --  -10.05166 -10.05166 -10.05165 -10.05165 -10.05059
 Alpha  occ. eigenvalues --  -10.05059 -10.05059 -10.05059  -1.08289  -1.08286
 Alpha  occ. eigenvalues --   -0.98201  -0.96504  -0.95707  -0.95707  -0.94413
 Alpha  occ. eigenvalues --   -0.93878  -0.89620  -0.87069  -0.86777  -0.86301
 Alpha  occ. eigenvalues --   -0.85871  -0.85504  -0.84886  -0.84566  -0.84565
 Alpha  occ. eigenvalues --   -0.84462  -0.82650  -0.81013  -0.76237  -0.75512
 Alpha  occ. eigenvalues --   -0.74489  -0.73577  -0.73134  -0.71930  -0.71656
 Alpha  occ. eigenvalues --   -0.71376  -0.71203  -0.70849  -0.69042  -0.68680
 Alpha  occ. eigenvalues --   -0.66689  -0.66011  -0.65844  -0.65612  -0.63692
 Alpha  occ. eigenvalues --   -0.61370  -0.61331  -0.60830  -0.59965  -0.59698
 Alpha  occ. eigenvalues --   -0.59471  -0.57952  -0.57913  -0.57270  -0.57207
 Alpha  occ. eigenvalues --   -0.57162  -0.56458  -0.55664  -0.55517  -0.55355
 Alpha  occ. eigenvalues --   -0.55336  -0.55250  -0.55096  -0.54145  -0.54036
 Alpha  occ. eigenvalues --   -0.53859  -0.53858  -0.53554  -0.52268  -0.51851
 Alpha  occ. eigenvalues --   -0.51095  -0.50756  -0.50430  -0.50402  -0.49219
 Alpha  occ. eigenvalues --   -0.48945  -0.48428  -0.48317  -0.48078  -0.47715
 Alpha  occ. eigenvalues --   -0.47671  -0.46931  -0.46612  -0.46304  -0.46277
 Alpha  occ. eigenvalues --   -0.45564  -0.44677  -0.42419  -0.41086  -0.41082
 Alpha  occ. eigenvalues --   -0.40207  -0.40199  -0.39861  -0.39386  -0.39362
 Alpha  occ. eigenvalues --   -0.38947  -0.38791  -0.34514  -0.33354
 Alpha virt. eigenvalues --   -0.11640  -0.09654  -0.09523  -0.08597  -0.08589
 Alpha virt. eigenvalues --   -0.07877  -0.07388  -0.07262  -0.06538  -0.06502
 Alpha virt. eigenvalues --   -0.04985  -0.03858  -0.00671  -0.00086   0.00957

  Beta  occ. eigenvalues --  -14.22120 -14.22120 -10.11553 -10.11552 -10.10158
  Beta  occ. eigenvalues --  -10.10157 -10.10156 -10.10156 -10.08168 -10.08154
  Beta  occ. eigenvalues --  -10.07015 -10.07014 -10.07012 -10.07011 -10.06971
  Beta  occ. eigenvalues --  -10.06971 -10.06971 -10.06971 -10.05722 -10.05721
  Beta  occ. eigenvalues --  -10.05721 -10.05721 -10.05579 -10.05579 -10.05578
  Beta  occ. eigenvalues --  -10.05578 -10.05258 -10.05258 -10.05258 -10.05258
  Beta  occ. eigenvalues --  -10.05186 -10.05186 -10.05186 -10.05186 -10.04990
  Beta  occ. eigenvalues --  -10.04989 -10.04989 -10.04989  -1.07807  -1.07803
  Beta  occ. eigenvalues --   -0.98039  -0.96358  -0.95618  -0.95618  -0.94287
  Beta  occ. eigenvalues --   -0.93736  -0.89426  -0.86990  -0.86690  -0.86169
  Beta  occ. eigenvalues --   -0.85786  -0.85423  -0.84813  -0.84499  -0.84498
  Beta  occ. eigenvalues --   -0.84376  -0.82466  -0.80744  -0.76130  -0.75381
  Beta  occ. eigenvalues --   -0.74361  -0.73463  -0.73005  -0.71791  -0.71597
  Beta  occ. eigenvalues --   -0.71290  -0.71122  -0.70773  -0.68955  -0.68598
  Beta  occ. eigenvalues --   -0.66618  -0.65919  -0.65770  -0.65535  -0.63606
  Beta  occ. eigenvalues --   -0.61247  -0.61226  -0.60742  -0.59865  -0.59527
  Beta  occ. eigenvalues --   -0.59157  -0.57886  -0.57783  -0.57208  -0.57125
  Beta  occ. eigenvalues --   -0.57109  -0.56389  -0.55622  -0.55480  -0.55287
  Beta  occ. eigenvalues --   -0.55267  -0.55188  -0.55056  -0.54086  -0.53998
  Beta  occ. eigenvalues --   -0.53828  -0.53827  -0.53464  -0.52036  -0.51518
  Beta  occ. eigenvalues --   -0.50792  -0.50531  -0.50257  -0.50230  -0.49162
  Beta  occ. eigenvalues --   -0.48848  -0.48265  -0.48125  -0.48026  -0.47621
  Beta  occ. eigenvalues --   -0.47577  -0.46769  -0.46523  -0.46263  -0.46234
  Beta  occ. eigenvalues --   -0.45296  -0.44176  -0.41904  -0.40920  -0.40913
  Beta  occ. eigenvalues --   -0.39891  -0.39877  -0.39261  -0.39161  -0.39125
  Beta  occ. eigenvalues --   -0.38799  -0.38349  -0.31185
  Beta virt. eigenvalues --   -0.23545  -0.11249  -0.09444  -0.09303  -0.08333
  Beta virt. eigenvalues --   -0.08320  -0.07499  -0.07199  -0.07027  -0.06364
  Beta virt. eigenvalues --   -0.06299  -0.04547  -0.03383  -0.00631  -0.00040

 Mulliken charges and spin densities:
               1          2
     1  C   -0.109116   0.029949
     2  C   -0.039383   0.036530
     3  C   -0.130233  -0.000472
     4  C   -0.109146   0.029959
     5  C    0.035414   0.054193
     6  C   -0.130224  -0.000474
     7  H    0.144924  -0.000137
     8  H    0.164972  -0.001249
     9  H    0.144923  -0.000137
    10  C    0.035502   0.054122
    11  C   -0.130246  -0.000438
    12  C   -0.130242  -0.000448
    13  C   -0.108797   0.029900
    14  C   -0.108920   0.029910
    15  C   -0.039992   0.036546
    16  H    0.144925  -0.000138
    17  H    0.144928  -0.000138
    18  H    0.164895  -0.001246
    19  H    0.164920  -0.001247
    20  H    0.164965  -0.001248
    21  N    0.049718   0.173974
    22  C   -0.066871  -0.008587
    23  C   -0.099521   0.044875
    24  C   -0.097283   0.045066
    25  C   -0.103138  -0.022777
    26  C   -0.103342  -0.024325
    27  C   -0.078889   0.059977
    28  H    0.163705  -0.001864
    29  H    0.153754  -0.002049
    30  H    0.130206   0.001118
    31  H    0.127066   0.001315
    32  H    0.131047  -0.003081
    33  C   -0.067278  -0.008580
    34  C   -0.099373   0.044830
    35  C   -0.097084   0.045023
    36  C   -0.103151  -0.022754
    37  C   -0.103342  -0.024302
    38  C   -0.078861   0.059910
    39  H    0.163679  -0.001862
    40  H    0.153696  -0.002047
    41  H    0.130205   0.001118
    42  H    0.127069   0.001315
    43  H    0.131050  -0.003077
    44  N    0.049708   0.173966
    45  C   -0.067258  -0.008583
    46  C   -0.099263   0.044827
    47  C   -0.097218   0.045015
    48  C   -0.103133  -0.022749
    49  C   -0.103346  -0.024298
    50  C   -0.078868   0.059900
    51  H    0.163634  -0.001862
    52  H    0.153742  -0.002046
    53  H    0.130204   0.001118
    54  H    0.127067   0.001314
    55  H    0.131049  -0.003077
    56  C   -0.067459  -0.008580
    57  C   -0.099200   0.044810
    58  C   -0.097107   0.044997
    59  C   -0.103145  -0.022740
    60  C   -0.103355  -0.024289
    61  C   -0.078854   0.059875
    62  H    0.163618  -0.001861
    63  H    0.153730  -0.002045
    64  H    0.130205   0.001117
    65  H    0.127068   0.001314
    66  H    0.131049  -0.003075
 Sum of Mulliken charges =   1.00000   1.00000

 Dipole moment (field-independent basis, Debye):
    X=             -0.0000    Y=              0.0002    Z=              0.0001  Tot=              0.0003
 Quadrupole moment (field-independent basis, Debye-Ang):
   XX=            -40.2041   YY=           -172.8051   ZZ=           -206.7127
   XY=              0.0059   XZ=             -0.0006   YZ=             -0.0032

 Normal termination of Gaussian 16 at Mon Jan 18 00:33:55 2021.
