 Gaussian 16, Revision A.03,
 Gaussian 16:  EM64L-G16RevA.03 25-Dec-2016

 ----------------------------------------------------------------------
 #P LC-wHPBE/TZVP iop(3/107=0156200000, 3/108=0156200000) scf=(conver=6
 ,fermi,ndamp=35,noincfock,novaracc,vshift=500,xqc)
 ----------------------------------------------------------------------

 ----------
 H28 C36 N2
 ----------
 Symbolic Z-matrix:
 Charge =  1 Multiplicity = 2

                         Standard orientation:
 ---------------------------------------------------------------------
 Center     Atomic      Atomic             Coordinates (Angstroms)
 Number     Number       Type             X           Y           Z
 ---------------------------------------------------------------------
      1          6           0       -2.849999   -1.125861   -0.415638
      2          6           0       -3.563139   -0.000026    0.000017
      3          6           0       -1.464492   -1.123667   -0.405534
      4          6           0       -2.850033    1.125752    0.415809
      5          6           0       -0.741288   -0.000047    0.000195
      6          6           0       -1.464504    1.123547    0.405879
      7          1           0       -0.931596   -2.005844   -0.756198
      8          1           0       -3.391048    2.006254    0.754990
      9          1           0       -0.931669    2.005728    0.756629
     10          6           0        0.741437   -0.000073    0.000217
     11          6           0        1.464635    1.123165   -0.406556
     12          6           0        1.464638   -1.123302    0.406976
     13          6           0        2.850149    1.125343   -0.416610
     14          6           0        2.850163   -1.125491    0.416935
     15          6           0        3.563257   -0.000095    0.000116
     16          1           0        0.931751    2.005025   -0.758038
     17          1           0        0.931783   -2.005140    0.758553
     18          1           0        3.391193    2.005527   -0.756576
     19          1           0        3.391211   -2.005669    0.756913
     20          1           0       -3.391005   -2.006357   -0.754845
     21          7           0        4.978430   -0.000102    0.000065
     22          6           0        5.687099   -1.154578   -0.414287
     23          6           0        6.831881   -1.566674    0.271150
     24          6           0        5.251323   -1.896933   -1.513908
     25          6           0        7.528311   -2.692826   -0.143324
     26          6           0        5.943392   -3.032223   -1.910440
     27          6           0        7.087522   -3.435368   -1.232277
     28          1           0        7.173684   -0.995181    1.131117
     29          1           0        4.363437   -1.577947   -2.055099
     30          1           0        8.419174   -2.999763    0.401550
     31          1           0        5.589860   -3.599797   -2.769285
     32          1           0        7.631852   -4.321852   -1.550225
     33          6           0        5.687025    1.154532    0.414292
     34          6           0        6.831191    1.567225   -0.271802
     35          6           0        5.251707    1.896381    1.514415
     36          6           0        7.527485    2.693516    0.142525
     37          6           0        5.943620    3.031828    1.910808
     38          6           0        7.087137    3.435581    1.231989
     39          1           0        7.172616    0.996083   -1.132151
     40          1           0        4.364291    1.576910    2.056093
     41          1           0        8.417875    3.000945   -0.402845
     42          1           0        5.590451    3.599029    2.770050
     43          1           0        7.631350    4.322181    1.549815
     44          7           0       -4.978266    0.000020   -0.000103
     45          6           0       -5.686990    1.154558   -0.414335
     46          6           0       -6.831289    1.566980    0.271699
     47          6           0       -5.251761    1.896543   -1.514410
     48          6           0       -7.527834    2.693112   -0.142653
     49          6           0       -5.943923    3.031822   -1.910819
     50          6           0       -7.087590    3.435293   -1.232069
     51          1           0       -7.172649    0.995729    1.132000
     52          1           0       -4.364233    1.577285   -2.056034
     53          1           0       -8.418333    3.000297    0.402674
     54          1           0       -5.590850    3.599137   -2.770027
     55          1           0       -7.631979    4.321768   -1.549941
     56          6           0       -5.687017   -1.154516    0.414141
     57          6           0       -6.831068   -1.567191   -0.272109
     58          6           0       -5.251977   -1.896199    1.514492
     59          6           0       -7.527566   -2.693348    0.142281
     60          6           0       -5.944079   -3.031486    1.910953
     61          6           0       -7.087509   -3.435246    1.231958
     62          1           0       -7.172277   -0.996155   -1.132614
     63          1           0       -4.364636   -1.576682    2.056275
     64          1           0       -8.417864   -3.000787   -0.403227
     65          1           0       -5.591165   -3.598572    2.770374
     66          1           0       -7.631874   -4.321730    1.549857
 ---------------------------------------------------------------------

 SCF Done:  E(ULC-wHPBE) =  -1496.92499255     A.U. after   21 cycles

 The electronic state is 2-A.
 Alpha  occ. eigenvalues --  -14.24161 -14.24161 -10.13375 -10.13375 -10.11781
 Alpha  occ. eigenvalues --  -10.11780 -10.11779 -10.11778 -10.10028 -10.10014
 Alpha  occ. eigenvalues --  -10.08786 -10.08785 -10.08783 -10.08782 -10.08744
 Alpha  occ. eigenvalues --  -10.08744 -10.08743 -10.08743 -10.07430 -10.07429
 Alpha  occ. eigenvalues --  -10.07429 -10.07429 -10.07272 -10.07271 -10.07271
 Alpha  occ. eigenvalues --  -10.07271 -10.06866 -10.06866 -10.06866 -10.06865
 Alpha  occ. eigenvalues --  -10.06795 -10.06795 -10.06794 -10.06794 -10.06687
 Alpha  occ. eigenvalues --  -10.06687 -10.06686 -10.06686  -1.10039  -1.10036
 Alpha  occ. eigenvalues --   -1.00042  -0.98314  -0.97426  -0.97426  -0.96140
 Alpha  occ. eigenvalues --   -0.95610  -0.91403  -0.88826  -0.88504  -0.88030
 Alpha  occ. eigenvalues --   -0.87581  -0.87234  -0.86570  -0.86240  -0.86239
 Alpha  occ. eigenvalues --   -0.86149  -0.84324  -0.82696  -0.77888  -0.77202
 Alpha  occ. eigenvalues --   -0.76114  -0.75198  -0.74752  -0.73564  -0.73262
 Alpha  occ. eigenvalues --   -0.72959  -0.72800  -0.72455  -0.70633  -0.70288
 Alpha  occ. eigenvalues --   -0.68302  -0.67578  -0.67399  -0.67162  -0.65270
 Alpha  occ. eigenvalues --   -0.62943  -0.62852  -0.62340  -0.61471  -0.61189
 Alpha  occ. eigenvalues --   -0.61001  -0.59488  -0.59392  -0.58774  -0.58690
 Alpha  occ. eigenvalues --   -0.58647  -0.57907  -0.57177  -0.56963  -0.56825
 Alpha  occ. eigenvalues --   -0.56769  -0.56690  -0.56596  -0.55582  -0.55460
 Alpha  occ. eigenvalues --   -0.55267  -0.55267  -0.54988  -0.53838  -0.53370
 Alpha  occ. eigenvalues --   -0.52562  -0.52272  -0.51937  -0.51908  -0.50606
 Alpha  occ. eigenvalues --   -0.50373  -0.49871  -0.49646  -0.49414  -0.49042
 Alpha  occ. eigenvalues --   -0.49003  -0.48273  -0.47947  -0.47605  -0.47577
 Alpha  occ. eigenvalues --   -0.46933  -0.46039  -0.43711  -0.42353  -0.42337
 Alpha  occ. eigenvalues --   -0.41378  -0.41371  -0.41046  -0.40553  -0.40532
 Alpha  occ. eigenvalues --   -0.40097  -0.39938  -0.35553  -0.34375
 Alpha virt. eigenvalues --   -0.10829  -0.08705  -0.08577  -0.07605  -0.07596
 Alpha virt. eigenvalues --   -0.06918  -0.06349  -0.06227  -0.05459  -0.05426
 Alpha virt. eigenvalues --   -0.03917  -0.02779   0.00279   0.00889   0.01930

  Beta  occ. eigenvalues --  -14.23766 -14.23766 -10.13335 -10.13334 -10.11809
  Beta  occ. eigenvalues --  -10.11808 -10.11807 -10.11806 -10.09946 -10.09932
  Beta  occ. eigenvalues --  -10.08763 -10.08762 -10.08760 -10.08758 -10.08710
  Beta  occ. eigenvalues --  -10.08710 -10.08709 -10.08709 -10.07363 -10.07362
  Beta  occ. eigenvalues --  -10.07362 -10.07362 -10.07209 -10.07208 -10.07208
  Beta  occ. eigenvalues --  -10.07208 -10.06891 -10.06891 -10.06891 -10.06891
  Beta  occ. eigenvalues --  -10.06817 -10.06817 -10.06817 -10.06817 -10.06617
  Beta  occ. eigenvalues --  -10.06617 -10.06617 -10.06616  -1.09547  -1.09543
  Beta  occ. eigenvalues --   -0.99873  -0.98163  -0.97340  -0.97340  -0.96014
  Beta  occ. eigenvalues --   -0.95467  -0.91197  -0.88749  -0.88420  -0.87889
  Beta  occ. eigenvalues --   -0.87497  -0.87154  -0.86498  -0.86174  -0.86173
  Beta  occ. eigenvalues --   -0.86061  -0.84137  -0.82407  -0.77781  -0.77064
  Beta  occ. eigenvalues --   -0.75983  -0.75080  -0.74620  -0.73420  -0.73203
  Beta  occ. eigenvalues --   -0.72874  -0.72719  -0.72380  -0.70546  -0.70205
  Beta  occ. eigenvalues --   -0.68230  -0.67484  -0.67326  -0.67085  -0.65182
  Beta  occ. eigenvalues --   -0.62792  -0.62766  -0.62251  -0.61364  -0.61012
  Beta  occ. eigenvalues --   -0.60678  -0.59417  -0.59257  -0.58700  -0.58606
  Beta  occ. eigenvalues --   -0.58604  -0.57837  -0.57133  -0.56926  -0.56732
  Beta  occ. eigenvalues --   -0.56720  -0.56624  -0.56552  -0.55518  -0.55420
  Beta  occ. eigenvalues --   -0.55235  -0.55234  -0.54895  -0.53598  -0.53030
  Beta  occ. eigenvalues --   -0.52263  -0.52041  -0.51758  -0.51730  -0.50549
  Beta  occ. eigenvalues --   -0.50258  -0.49593  -0.49523  -0.49363  -0.48946
  Beta  occ. eigenvalues --   -0.48896  -0.48086  -0.47842  -0.47561  -0.47532
  Beta  occ. eigenvalues --   -0.46656  -0.45472  -0.43057  -0.42192  -0.42189
  Beta  occ. eigenvalues --   -0.41021  -0.41013  -0.40330  -0.40296  -0.40260
  Beta  occ. eigenvalues --   -0.39940  -0.39314  -0.31619
  Beta virt. eigenvalues --   -0.23522  -0.10457  -0.08471  -0.08323  -0.07328
  Beta virt. eigenvalues --   -0.07313  -0.06499  -0.06145  -0.05967  -0.05274
  Beta virt. eigenvalues --   -0.05210  -0.03413  -0.02228   0.00318   0.00933

 Mulliken charges and spin densities:
               1          2
     1  C   -0.108697   0.029073
     2  C   -0.039674   0.040175
     3  C   -0.132477  -0.000343
     4  C   -0.108727   0.029083
     5  C    0.035412   0.055966
     6  C   -0.132468  -0.000345
     7  H    0.146865  -0.000207
     8  H    0.167543  -0.001238
     9  H    0.146864  -0.000207
    10  C    0.035501   0.055891
    11  C   -0.132491  -0.000306
    12  C   -0.132487  -0.000317
    13  C   -0.108376   0.029021
    14  C   -0.108495   0.029031
    15  C   -0.040295   0.040192
    16  H    0.146867  -0.000208
    17  H    0.146869  -0.000208
    18  H    0.167466  -0.001235
    19  H    0.167490  -0.001235
    20  H    0.167536  -0.001237
    21  N    0.044810   0.178824
    22  C   -0.064969  -0.011960
    23  C   -0.100045   0.046203
    24  C   -0.097999   0.046349
    25  C   -0.105669  -0.024667
    26  C   -0.105883  -0.026406
    27  C   -0.080340   0.060348
    28  H    0.165607  -0.001908
    29  H    0.155324  -0.002128
    30  H    0.130971   0.001183
    31  H    0.127788   0.001398
    32  H    0.131860  -0.003074
    33  C   -0.065377  -0.011950
    34  C   -0.099893   0.046156
    35  C   -0.097797   0.046304
    36  C   -0.105684  -0.024642
    37  C   -0.105884  -0.026381
    38  C   -0.080310   0.060281
    39  H    0.165581  -0.001906
    40  H    0.155266  -0.002125
    41  H    0.130971   0.001183
    42  H    0.127791   0.001398
    43  H    0.131863  -0.003071
    44  N    0.044794   0.178821
    45  C   -0.065349  -0.011953
    46  C   -0.099784   0.046153
    47  C   -0.097927   0.046296
    48  C   -0.105668  -0.024637
    49  C   -0.105890  -0.026376
    50  C   -0.080319   0.060270
    51  H    0.165535  -0.001907
    52  H    0.155312  -0.002125
    53  H    0.130970   0.001183
    54  H    0.127790   0.001397
    55  H    0.131862  -0.003070
    56  C   -0.065550  -0.011948
    57  C   -0.099719   0.046136
    58  C   -0.097815   0.046277
    59  C   -0.105681  -0.024628
    60  C   -0.105901  -0.026366
    61  C   -0.080305   0.060245
    62  H    0.165518  -0.001906
    63  H    0.155299  -0.002124
    64  H    0.130971   0.001182
    65  H    0.127791   0.001397
    66  H    0.131862  -0.003069
 Sum of Mulliken charges =   1.00000   1.00000

 Dipole moment (field-independent basis, Debye):
    X=             -0.0002    Y=              0.0002    Z=              0.0001  Tot=              0.0004
 Quadrupole moment (field-independent basis, Debye-Ang):
   XX=            -41.3207   YY=           -172.8160   ZZ=           -206.6020
   XY=              0.0061   XZ=             -0.0006   YZ=             -0.0031

 Normal termination of Gaussian 16 at Sun Jan 17 23:52:10 2021.
