 Gaussian 16, Revision A.03,
 Gaussian 16:  EM64L-G16RevA.03 25-Dec-2016

 ----------------------------------------------------------------------
 #P LC-wHPBE/TZVP iop(3/107=0328100000, 3/108=0328100000) scf=(conver=6
 ,fermi,ndamp=35,noincfock,novaracc,vshift=500,xqc)
 ----------------------------------------------------------------------

 ----------
 H28 C36 N2
 ----------
 Symbolic Z-matrix:
 Charge =  1 Multiplicity = 2

                         Standard orientation:
 ---------------------------------------------------------------------
 Center     Atomic      Atomic             Coordinates (Angstroms)
 Number     Number       Type             X           Y           Z
 ---------------------------------------------------------------------
      1          6           0       -2.849999   -1.125861   -0.415638
      2          6           0       -3.563139   -0.000026    0.000017
      3          6           0       -1.464492   -1.123667   -0.405534
      4          6           0       -2.850033    1.125752    0.415809
      5          6           0       -0.741288   -0.000047    0.000195
      6          6           0       -1.464504    1.123547    0.405879
      7          1           0       -0.931596   -2.005844   -0.756198
      8          1           0       -3.391048    2.006254    0.754990
      9          1           0       -0.931669    2.005728    0.756629
     10          6           0        0.741437   -0.000073    0.000217
     11          6           0        1.464635    1.123165   -0.406556
     12          6           0        1.464638   -1.123302    0.406976
     13          6           0        2.850149    1.125343   -0.416610
     14          6           0        2.850163   -1.125491    0.416935
     15          6           0        3.563257   -0.000095    0.000116
     16          1           0        0.931751    2.005025   -0.758038
     17          1           0        0.931783   -2.005140    0.758553
     18          1           0        3.391193    2.005527   -0.756576
     19          1           0        3.391211   -2.005669    0.756913
     20          1           0       -3.391005   -2.006357   -0.754845
     21          7           0        4.978430   -0.000102    0.000065
     22          6           0        5.687099   -1.154578   -0.414287
     23          6           0        6.831881   -1.566674    0.271150
     24          6           0        5.251323   -1.896933   -1.513908
     25          6           0        7.528311   -2.692826   -0.143324
     26          6           0        5.943392   -3.032223   -1.910440
     27          6           0        7.087522   -3.435368   -1.232277
     28          1           0        7.173684   -0.995181    1.131117
     29          1           0        4.363437   -1.577947   -2.055099
     30          1           0        8.419174   -2.999763    0.401550
     31          1           0        5.589860   -3.599797   -2.769285
     32          1           0        7.631852   -4.321852   -1.550225
     33          6           0        5.687025    1.154532    0.414292
     34          6           0        6.831191    1.567225   -0.271802
     35          6           0        5.251707    1.896381    1.514415
     36          6           0        7.527485    2.693516    0.142525
     37          6           0        5.943620    3.031828    1.910808
     38          6           0        7.087137    3.435581    1.231989
     39          1           0        7.172616    0.996083   -1.132151
     40          1           0        4.364291    1.576910    2.056093
     41          1           0        8.417875    3.000945   -0.402845
     42          1           0        5.590451    3.599029    2.770050
     43          1           0        7.631350    4.322181    1.549815
     44          7           0       -4.978266    0.000020   -0.000103
     45          6           0       -5.686990    1.154558   -0.414335
     46          6           0       -6.831289    1.566980    0.271699
     47          6           0       -5.251761    1.896543   -1.514410
     48          6           0       -7.527834    2.693112   -0.142653
     49          6           0       -5.943923    3.031822   -1.910819
     50          6           0       -7.087590    3.435293   -1.232069
     51          1           0       -7.172649    0.995729    1.132000
     52          1           0       -4.364233    1.577285   -2.056034
     53          1           0       -8.418333    3.000297    0.402674
     54          1           0       -5.590850    3.599137   -2.770027
     55          1           0       -7.631979    4.321768   -1.549941
     56          6           0       -5.687017   -1.154516    0.414141
     57          6           0       -6.831068   -1.567191   -0.272109
     58          6           0       -5.251977   -1.896199    1.514492
     59          6           0       -7.527566   -2.693348    0.142281
     60          6           0       -5.944079   -3.031486    1.910953
     61          6           0       -7.087509   -3.435246    1.231958
     62          1           0       -7.172277   -0.996155   -1.132614
     63          1           0       -4.364636   -1.576682    2.056275
     64          1           0       -8.417864   -3.000787   -0.403227
     65          1           0       -5.591165   -3.598572    2.770374
     66          1           0       -7.631874   -4.321730    1.549857
 ---------------------------------------------------------------------

 SCF Done:  E(ULC-wHPBE) =  -1497.20272296     A.U. after   26 cycles

 The electronic state is 2-A.
 Alpha  occ. eigenvalues --  -14.33699 -14.33691 -10.23828 -10.23821 -10.21508
 Alpha  occ. eigenvalues --  -10.21506 -10.21502 -10.21499 -10.20385 -10.20371
 Alpha  occ. eigenvalues --  -10.18966 -10.18964 -10.18963 -10.18960 -10.18838
 Alpha  occ. eigenvalues --  -10.18838 -10.18834 -10.18833 -10.17073 -10.17073
 Alpha  occ. eigenvalues --  -10.17067 -10.17067 -10.16868 -10.16867 -10.16862
 Alpha  occ. eigenvalues --  -10.16861 -10.16437 -10.16437 -10.16433 -10.16433
 Alpha  occ. eigenvalues --  -10.16355 -10.16355 -10.16352 -10.16351 -10.16261
 Alpha  occ. eigenvalues --  -10.16260 -10.16257 -10.16256  -1.20202  -1.20192
 Alpha  occ. eigenvalues --   -1.10689  -1.08725  -1.07408  -1.07403  -1.06086
 Alpha  occ. eigenvalues --   -1.05522  -1.01309  -0.98605  -0.98111  -0.97536
 Alpha  occ. eigenvalues --   -0.96966  -0.96696  -0.95903  -0.95513  -0.95507
 Alpha  occ. eigenvalues --   -0.95456  -0.93407  -0.91737  -0.86432  -0.86011
 Alpha  occ. eigenvalues --   -0.84518  -0.83499  -0.83051  -0.81978  -0.81520
 Alpha  occ. eigenvalues --   -0.81118  -0.80974  -0.80667  -0.78642  -0.78332
 Alpha  occ. eigenvalues --   -0.76217  -0.75192  -0.74994  -0.74718  -0.72857
 Alpha  occ. eigenvalues --   -0.70528  -0.70169  -0.69577  -0.68784  -0.68344
 Alpha  occ. eigenvalues --   -0.68329  -0.66774  -0.66430  -0.66008  -0.65695
 Alpha  occ. eigenvalues --   -0.65524  -0.64724  -0.64312  -0.63830  -0.63767
 Alpha  occ. eigenvalues --   -0.63577  -0.63503  -0.63453  -0.62340  -0.62153
 Alpha  occ. eigenvalues --   -0.61880  -0.61875  -0.61610  -0.60964  -0.60372
 Alpha  occ. eigenvalues --   -0.59347  -0.59105  -0.58699  -0.58664  -0.56902
 Alpha  occ. eigenvalues --   -0.56815  -0.56304  -0.55657  -0.55455  -0.55041
 Alpha  occ. eigenvalues --   -0.55022  -0.54276  -0.53939  -0.53430  -0.53401
 Alpha  occ. eigenvalues --   -0.52845  -0.51916  -0.48800  -0.47145  -0.47090
 Alpha  occ. eigenvalues --   -0.45717  -0.45710  -0.45522  -0.44863  -0.44848
 Alpha  occ. eigenvalues --   -0.44344  -0.44171  -0.39551  -0.38319
 Alpha virt. eigenvalues --   -0.08421  -0.05811  -0.05666  -0.04403  -0.04389
 Alpha virt. eigenvalues --   -0.03873  -0.02998  -0.02870  -0.01913  -0.01881
 Alpha virt. eigenvalues --   -0.00437   0.00717   0.03269   0.04004   0.05043

  Beta  occ. eigenvalues --  -14.33257 -14.33249 -10.23762 -10.23755 -10.21570
  Beta  occ. eigenvalues --  -10.21567 -10.21564 -10.21561 -10.20286 -10.20270
  Beta  occ. eigenvalues --  -10.18955 -10.18953 -10.18952 -10.18949 -10.18795
  Beta  occ. eigenvalues --  -10.18794 -10.18791 -10.18790 -10.16986 -10.16985
  Beta  occ. eigenvalues --  -10.16980 -10.16979 -10.16787 -10.16786 -10.16781
  Beta  occ. eigenvalues --  -10.16780 -10.16487 -10.16487 -10.16484 -10.16483
  Beta  occ. eigenvalues --  -10.16401 -10.16401 -10.16397 -10.16396 -10.16175
  Beta  occ. eigenvalues --  -10.16175 -10.16171 -10.16171  -1.19662  -1.19652
  Beta  occ. eigenvalues --   -1.10467  -1.08511  -1.07325  -1.07320  -1.05936
  Beta  occ. eigenvalues --   -1.05348  -1.00998  -0.98546  -0.98045  -0.97315
  Beta  occ. eigenvalues --   -0.96885  -0.96619  -0.95828  -0.95449  -0.95444
  Beta  occ. eigenvalues --   -0.95343  -0.93173  -0.91287  -0.86320  -0.85825
  Beta  occ. eigenvalues --   -0.84346  -0.83363  -0.82886  -0.81775  -0.81462
  Beta  occ. eigenvalues --   -0.81029  -0.80887  -0.80594  -0.78547  -0.78240
  Beta  occ. eigenvalues --   -0.76144  -0.75093  -0.74917  -0.74632  -0.72754
  Beta  occ. eigenvalues --   -0.70307  -0.70056  -0.69468  -0.68562  -0.68090
  Beta  occ. eigenvalues --   -0.67932  -0.66672  -0.66255  -0.65913  -0.65582
  Beta  occ. eigenvalues --   -0.65482  -0.64647  -0.64259  -0.63732  -0.63724
  Beta  occ. eigenvalues --   -0.63447  -0.63438  -0.63333  -0.62218  -0.62094
  Beta  occ. eigenvalues --   -0.61837  -0.61832  -0.61490  -0.60602  -0.59796
  Beta  occ. eigenvalues --   -0.58978  -0.58711  -0.58406  -0.58374  -0.56838
  Beta  occ. eigenvalues --   -0.56604  -0.55647  -0.55597  -0.55398  -0.54892
  Beta  occ. eigenvalues --   -0.54821  -0.53938  -0.53755  -0.53381  -0.53352
  Beta  occ. eigenvalues --   -0.52358  -0.50784  -0.47223  -0.47128  -0.47097
  Beta  occ. eigenvalues --   -0.45236  -0.45230  -0.44463  -0.44432  -0.44398
  Beta  occ. eigenvalues --   -0.44131  -0.42542  -0.33715
  Beta virt. eigenvalues --   -0.23732  -0.08172  -0.05361  -0.05166  -0.04094
  Beta virt. eigenvalues --   -0.04074  -0.03301  -0.02667  -0.02424  -0.01644
  Beta virt. eigenvalues --   -0.01576   0.00373   0.01804   0.03299   0.04039

 Mulliken charges and spin densities:
               1          2
     1  C   -0.118267   0.021060
     2  C   -0.055824   0.065306
     3  C   -0.147699  -0.001257
     4  C   -0.118296   0.021072
     5  C    0.022026   0.068858
     6  C   -0.147690  -0.001262
     7  H    0.173304  -0.000559
     8  H    0.197408  -0.001023
     9  H    0.173303  -0.000559
    10  C    0.022151   0.068544
    11  C   -0.147727  -0.001061
    12  C   -0.147727  -0.001077
    13  C   -0.117957   0.020850
    14  C   -0.118056   0.020866
    15  C   -0.056432   0.065414
    16  H    0.173287  -0.000568
    17  H    0.173288  -0.000568
    18  H    0.197317  -0.001013
    19  H    0.197340  -0.001013
    20  H    0.197402  -0.001022
    21  N   -0.000984   0.194626
    22  C   -0.067617  -0.037146
    23  C   -0.118570   0.064998
    24  C   -0.119280   0.064343
    25  C   -0.124567  -0.048242
    26  C   -0.125136  -0.050992
    27  C   -0.106164   0.079269
    28  H    0.191928  -0.002550
    29  H    0.180649  -0.002926
    30  H    0.151209   0.002068
    31  H    0.147990   0.002330
    32  H    0.152277  -0.003747
    33  C   -0.068024  -0.037111
    34  C   -0.118407   0.064931
    35  C   -0.119078   0.064280
    36  C   -0.124586  -0.048192
    37  C   -0.125141  -0.050941
    38  C   -0.106130   0.079182
    39  H    0.191900  -0.002548
    40  H    0.180592  -0.002923
    41  H    0.151210   0.002067
    42  H    0.147994   0.002328
    43  H    0.152280  -0.003743
    44  N   -0.000915   0.194893
    45  C   -0.068022  -0.037152
    46  C   -0.118310   0.064999
    47  C   -0.119178   0.064340
    48  C   -0.124564  -0.048238
    49  C   -0.125143  -0.050988
    50  C   -0.106114   0.079258
    51  H    0.191870  -0.002551
    52  H    0.180662  -0.002926
    53  H    0.151226   0.002069
    54  H    0.148011   0.002331
    55  H    0.152297  -0.003747
    56  C   -0.068221  -0.037138
    57  C   -0.118233   0.064974
    58  C   -0.119076   0.064312
    59  C   -0.124580  -0.048219
    60  C   -0.125151  -0.050968
    61  C   -0.106098   0.079225
    62  H    0.191853  -0.002551
    63  H    0.180650  -0.002924
    64  H    0.151226   0.002068
    65  H    0.148013   0.002330
    66  H    0.152298  -0.003746
 Sum of Mulliken charges =   1.00000   1.00000

 Dipole moment (field-independent basis, Debye):
    X=             -0.0109    Y=              0.0003    Z=              0.0002  Tot=              0.0109
 Quadrupole moment (field-independent basis, Debye-Ang):
   XX=            -45.9266   YY=           -172.2218   ZZ=           -205.8565
   XY=              0.0067   XZ=             -0.0005   YZ=             -0.0076

 Normal termination of Gaussian 16 at Sun Jan 17 23:08:51 2021.
