 Gaussian 16, Revision A.03,
 Gaussian 16:  EM64L-G16RevA.03 25-Dec-2016

 ----------------------------------------------------------------------
 #P LC-wHPBE/TZVP iop(3/107=0184000000, 3/108=0184000000) scf=(conver=6
 ,fermi,ndamp=35,noincfock,novaracc,vshift=500,xqc)
 ----------------------------------------------------------------------

 ----------
 H28 C36 N2
 ----------
 Symbolic Z-matrix:
 Charge =  1 Multiplicity = 2

                         Standard orientation:
 ---------------------------------------------------------------------
 Center     Atomic      Atomic             Coordinates (Angstroms)
 Number     Number       Type             X           Y           Z
 ---------------------------------------------------------------------
      1          6           0       -2.849999   -1.125861   -0.415638
      2          6           0       -3.563139   -0.000026    0.000017
      3          6           0       -1.464492   -1.123667   -0.405534
      4          6           0       -2.850033    1.125752    0.415809
      5          6           0       -0.741288   -0.000047    0.000195
      6          6           0       -1.464504    1.123547    0.405879
      7          1           0       -0.931596   -2.005844   -0.756198
      8          1           0       -3.391048    2.006254    0.754990
      9          1           0       -0.931669    2.005728    0.756629
     10          6           0        0.741437   -0.000073    0.000217
     11          6           0        1.464635    1.123165   -0.406556
     12          6           0        1.464638   -1.123302    0.406976
     13          6           0        2.850149    1.125343   -0.416610
     14          6           0        2.850163   -1.125491    0.416935
     15          6           0        3.563257   -0.000095    0.000116
     16          1           0        0.931751    2.005025   -0.758038
     17          1           0        0.931783   -2.005140    0.758553
     18          1           0        3.391193    2.005527   -0.756576
     19          1           0        3.391211   -2.005669    0.756913
     20          1           0       -3.391005   -2.006357   -0.754845
     21          7           0        4.978430   -0.000102    0.000065
     22          6           0        5.687099   -1.154578   -0.414287
     23          6           0        6.831881   -1.566674    0.271150
     24          6           0        5.251323   -1.896933   -1.513908
     25          6           0        7.528311   -2.692826   -0.143324
     26          6           0        5.943392   -3.032223   -1.910440
     27          6           0        7.087522   -3.435368   -1.232277
     28          1           0        7.173684   -0.995181    1.131117
     29          1           0        4.363437   -1.577947   -2.055099
     30          1           0        8.419174   -2.999763    0.401550
     31          1           0        5.589860   -3.599797   -2.769285
     32          1           0        7.631852   -4.321852   -1.550225
     33          6           0        5.687025    1.154532    0.414292
     34          6           0        6.831191    1.567225   -0.271802
     35          6           0        5.251707    1.896381    1.514415
     36          6           0        7.527485    2.693516    0.142525
     37          6           0        5.943620    3.031828    1.910808
     38          6           0        7.087137    3.435581    1.231989
     39          1           0        7.172616    0.996083   -1.132151
     40          1           0        4.364291    1.576910    2.056093
     41          1           0        8.417875    3.000945   -0.402845
     42          1           0        5.590451    3.599029    2.770050
     43          1           0        7.631350    4.322181    1.549815
     44          7           0       -4.978266    0.000020   -0.000103
     45          6           0       -5.686990    1.154558   -0.414335
     46          6           0       -6.831289    1.566980    0.271699
     47          6           0       -5.251761    1.896543   -1.514410
     48          6           0       -7.527834    2.693112   -0.142653
     49          6           0       -5.943923    3.031822   -1.910819
     50          6           0       -7.087590    3.435293   -1.232069
     51          1           0       -7.172649    0.995729    1.132000
     52          1           0       -4.364233    1.577285   -2.056034
     53          1           0       -8.418333    3.000297    0.402674
     54          1           0       -5.590850    3.599137   -2.770027
     55          1           0       -7.631979    4.321768   -1.549941
     56          6           0       -5.687017   -1.154516    0.414141
     57          6           0       -6.831068   -1.567191   -0.272109
     58          6           0       -5.251977   -1.896199    1.514492
     59          6           0       -7.527566   -2.693348    0.142281
     60          6           0       -5.944079   -3.031486    1.910953
     61          6           0       -7.087509   -3.435246    1.231958
     62          1           0       -7.172277   -0.996155   -1.132614
     63          1           0       -4.364636   -1.576682    2.056275
     64          1           0       -8.417864   -3.000787   -0.403227
     65          1           0       -5.591165   -3.598572    2.770374
     66          1           0       -7.631874   -4.321730    1.549857
 ---------------------------------------------------------------------

 SCF Done:  E(ULC-wHPBE) =  -1496.97857900     A.U. after   22 cycles

 The electronic state is 2-A.
 Alpha  occ. eigenvalues --  -14.25724 -14.25723 -10.15072 -10.15069 -10.13345
 Alpha  occ. eigenvalues --  -10.13344 -10.13343 -10.13342 -10.11713 -10.11700
 Alpha  occ. eigenvalues --  -10.10436 -10.10435 -10.10432 -10.10431 -10.10393
 Alpha  occ. eigenvalues --  -10.10392 -10.10392 -10.10392 -10.08988 -10.08987
 Alpha  occ. eigenvalues --  -10.08987 -10.08986 -10.08822 -10.08822 -10.08822
 Alpha  occ. eigenvalues --  -10.08821 -10.08411 -10.08411 -10.08411 -10.08411
 Alpha  occ. eigenvalues --  -10.08338 -10.08338 -10.08337 -10.08337 -10.08230
 Alpha  occ. eigenvalues --  -10.08230 -10.08230 -10.08229  -1.11707  -1.11703
 Alpha  occ. eigenvalues --   -1.01797  -1.00039  -0.99068  -0.99068  -0.97787
 Alpha  occ. eigenvalues --   -0.97258  -0.93086  -0.90487  -0.90137  -0.89659
 Alpha  occ. eigenvalues --   -0.89189  -0.88859  -0.88160  -0.87820  -0.87819
 Alpha  occ. eigenvalues --   -0.87739  -0.85894  -0.84270  -0.79416  -0.78770
 Alpha  occ. eigenvalues --   -0.77619  -0.76693  -0.76246  -0.75075  -0.74745
 Alpha  occ. eigenvalues --   -0.74423  -0.74272  -0.73936  -0.72094  -0.71761
 Alpha  occ. eigenvalues --   -0.69774  -0.69001  -0.68816  -0.68573  -0.66699
 Alpha  occ. eigenvalues --   -0.64368  -0.64230  -0.63704  -0.62835  -0.62536
 Alpha  occ. eigenvalues --   -0.62387  -0.60871  -0.60724  -0.60144  -0.60022
 Alpha  occ. eigenvalues --   -0.59961  -0.59206  -0.58535  -0.58260  -0.58153
 Alpha  occ. eigenvalues --   -0.58055  -0.57982  -0.57938  -0.56873  -0.56737
 Alpha  occ. eigenvalues --   -0.56529  -0.56528  -0.56263  -0.55242  -0.54733
 Alpha  occ. eigenvalues --   -0.53879  -0.53625  -0.53287  -0.53256  -0.51831
 Alpha  occ. eigenvalues --   -0.51633  -0.51148  -0.50818  -0.50593  -0.50213
 Alpha  occ. eigenvalues --   -0.50180  -0.49454  -0.49121  -0.48747  -0.48719
 Alpha  occ. eigenvalues --   -0.48125  -0.47227  -0.44805  -0.43415  -0.43389
 Alpha  occ. eigenvalues --   -0.42353  -0.42347  -0.42035  -0.41524  -0.41505
 Alpha  occ. eigenvalues --   -0.41054  -0.40891  -0.36419  -0.35229
 Alpha virt. eigenvalues --   -0.10195  -0.07955  -0.07829  -0.06812  -0.06802
 Alpha virt. eigenvalues --   -0.06156  -0.05517  -0.05397  -0.04591  -0.04559
 Alpha virt. eigenvalues --   -0.03062  -0.01913   0.01033   0.01666   0.02707

  Beta  occ. eigenvalues --  -14.25319 -14.25319 -10.15027 -10.15025 -10.13378
  Beta  occ. eigenvalues --  -10.13376 -10.13376 -10.13375 -10.11629 -10.11615
  Beta  occ. eigenvalues --  -10.10419 -10.10418 -10.10416 -10.10415 -10.10352
  Beta  occ. eigenvalues --  -10.10351 -10.10351 -10.10351 -10.08919 -10.08918
  Beta  occ. eigenvalues --  -10.08918 -10.08917 -10.08758 -10.08758 -10.08757
  Beta  occ. eigenvalues --  -10.08757 -10.08439 -10.08439 -10.08439 -10.08439
  Beta  occ. eigenvalues --  -10.08363 -10.08362 -10.08362 -10.08362 -10.08160
  Beta  occ. eigenvalues --  -10.08160 -10.08160 -10.08159  -1.11206  -1.11202
  Beta  occ. eigenvalues --   -1.01622  -0.99881  -0.98984  -0.98983  -0.97659
  Beta  occ. eigenvalues --   -0.97112  -0.92868  -0.90413  -0.90055  -0.89509
  Beta  occ. eigenvalues --   -0.89106  -0.88780  -0.88088  -0.87755  -0.87754
  Beta  occ. eigenvalues --   -0.87649  -0.85702  -0.83960  -0.79309  -0.78627
  Beta  occ. eigenvalues --   -0.77482  -0.76572  -0.76109  -0.74924  -0.74687
  Beta  occ. eigenvalues --   -0.74337  -0.74190  -0.73862  -0.72005  -0.71678
  Beta  occ. eigenvalues --   -0.69702  -0.68907  -0.68742  -0.68495  -0.66609
  Beta  occ. eigenvalues --   -0.64208  -0.64141  -0.63612  -0.62719  -0.62352
  Beta  occ. eigenvalues --   -0.62053  -0.60795  -0.60585  -0.60064  -0.59934
  Beta  occ. eigenvalues --   -0.59920  -0.59134  -0.58490  -0.58224  -0.58057
  Beta  occ. eigenvalues --   -0.58004  -0.57910  -0.57885  -0.56803  -0.56695
  Beta  occ. eigenvalues --   -0.56495  -0.56494  -0.56166  -0.54994  -0.54377
  Beta  occ. eigenvalues --   -0.53582  -0.53382  -0.53096  -0.53067  -0.51773
  Beta  occ. eigenvalues --   -0.51499  -0.50764  -0.50746  -0.50540  -0.50112
  Beta  occ. eigenvalues --   -0.50056  -0.49240  -0.49000  -0.48701  -0.48672
  Beta  occ. eigenvalues --   -0.47831  -0.46582  -0.44003  -0.43271  -0.43258
  Beta  occ. eigenvalues --   -0.41965  -0.41959  -0.41236  -0.41233  -0.41200
  Beta  occ. eigenvalues --   -0.40888  -0.40080  -0.32007
  Beta virt. eigenvalues --   -0.23539  -0.09852  -0.07693  -0.07538  -0.06526
  Beta virt. eigenvalues --   -0.06511  -0.05704  -0.05295  -0.05109  -0.04393
  Beta virt. eigenvalues --   -0.04329  -0.02494  -0.01275   0.01070   0.01709

 Mulliken charges and spin densities:
               1          2
     1  C   -0.108742   0.028204
     2  C   -0.040975   0.043658
     3  C   -0.134994  -0.000427
     4  C   -0.108772   0.028215
     5  C    0.034605   0.057852
     6  C   -0.134985  -0.000430
     7  H    0.149651  -0.000260
     8  H    0.170926  -0.001226
     9  H    0.149651  -0.000260
    10  C    0.034698   0.057771
    11  C   -0.135016  -0.000386
    12  C   -0.135011  -0.000397
    13  C   -0.108414   0.028148
    14  C   -0.108530   0.028160
    15  C   -0.041584   0.043677
    16  H    0.149652  -0.000261
    17  H    0.149654  -0.000261
    18  H    0.170846  -0.001223
    19  H    0.170870  -0.001223
    20  H    0.170919  -0.001225
    21  N    0.038724   0.183028
    22  C   -0.063571  -0.015318
    23  C   -0.101469   0.047829
    24  C   -0.099644   0.047912
    25  C   -0.108481  -0.026945
    26  C   -0.108721  -0.028851
    27  C   -0.082847   0.061421
    28  H    0.168349  -0.001965
    29  H    0.157797  -0.002216
    30  H    0.132660   0.001269
    31  H    0.129447   0.001498
    32  H    0.133607  -0.003096
    33  C   -0.063980  -0.015304
    34  C   -0.101313   0.047780
    35  C   -0.099440   0.047865
    36  C   -0.108498  -0.026917
    37  C   -0.108724  -0.028822
    38  C   -0.082816   0.061352
    39  H    0.168322  -0.001963
    40  H    0.157738  -0.002213
    41  H    0.132660   0.001269
    42  H    0.129450   0.001497
    43  H    0.133610  -0.003093
    44  N    0.038728   0.183034
    45  C   -0.063965  -0.015307
    46  C   -0.101211   0.047779
    47  C   -0.099570   0.047858
    48  C   -0.108478  -0.026913
    49  C   -0.108726  -0.028818
    50  C   -0.082820   0.061343
    51  H    0.168278  -0.001963
    52  H    0.157786  -0.002213
    53  H    0.132659   0.001269
    54  H    0.129448   0.001496
    55  H    0.133609  -0.003093
    56  C   -0.064167  -0.015301
    57  C   -0.101143   0.047761
    58  C   -0.099458   0.047838
    59  C   -0.108491  -0.026902
    60  C   -0.108737  -0.028807
    61  C   -0.082804   0.061318
    62  H    0.168261  -0.001962
    63  H    0.157774  -0.002212
    64  H    0.132660   0.001268
    65  H    0.129450   0.001496
    66  H    0.133609  -0.003091
 Sum of Mulliken charges =   1.00000   1.00000

 Dipole moment (field-independent basis, Debye):
    X=             -0.0006    Y=              0.0003    Z=              0.0001  Tot=              0.0007
 Quadrupole moment (field-independent basis, Debye-Ang):
   XX=            -42.2758   YY=           -172.7842   ZZ=           -206.4834
   XY=              0.0062   XZ=             -0.0005   YZ=             -0.0035

 Normal termination of Gaussian 16 at Mon Jan 18 02:06:12 2021.
