 Gaussian 16, Revision A.03,
 Gaussian 16:  EM64L-G16RevA.03 25-Dec-2016

 ----------------------------------------------------------------------
 #P LC-wHPBE/TZVP iop(3/107=0167700000, 3/108=0167700000) scf=(conver=6
 ,fermi,ndamp=35,noincfock,novaracc,vshift=500,xqc)
 ----------------------------------------------------------------------

 ----------
 H28 C36 N2
 ----------
 Symbolic Z-matrix:
 Charge =  1 Multiplicity = 2

                         Standard orientation:
 ---------------------------------------------------------------------
 Center     Atomic      Atomic             Coordinates (Angstroms)
 Number     Number       Type             X           Y           Z
 ---------------------------------------------------------------------
      1          6           0       -2.849999   -1.125861   -0.415638
      2          6           0       -3.563139   -0.000026    0.000017
      3          6           0       -1.464492   -1.123667   -0.405534
      4          6           0       -2.850033    1.125752    0.415809
      5          6           0       -0.741288   -0.000047    0.000195
      6          6           0       -1.464504    1.123547    0.405879
      7          1           0       -0.931596   -2.005844   -0.756198
      8          1           0       -3.391048    2.006254    0.754990
      9          1           0       -0.931669    2.005728    0.756629
     10          6           0        0.741437   -0.000073    0.000217
     11          6           0        1.464635    1.123165   -0.406556
     12          6           0        1.464638   -1.123302    0.406976
     13          6           0        2.850149    1.125343   -0.416610
     14          6           0        2.850163   -1.125491    0.416935
     15          6           0        3.563257   -0.000095    0.000116
     16          1           0        0.931751    2.005025   -0.758038
     17          1           0        0.931783   -2.005140    0.758553
     18          1           0        3.391193    2.005527   -0.756576
     19          1           0        3.391211   -2.005669    0.756913
     20          1           0       -3.391005   -2.006357   -0.754845
     21          7           0        4.978430   -0.000102    0.000065
     22          6           0        5.687099   -1.154578   -0.414287
     23          6           0        6.831881   -1.566674    0.271150
     24          6           0        5.251323   -1.896933   -1.513908
     25          6           0        7.528311   -2.692826   -0.143324
     26          6           0        5.943392   -3.032223   -1.910440
     27          6           0        7.087522   -3.435368   -1.232277
     28          1           0        7.173684   -0.995181    1.131117
     29          1           0        4.363437   -1.577947   -2.055099
     30          1           0        8.419174   -2.999763    0.401550
     31          1           0        5.589860   -3.599797   -2.769285
     32          1           0        7.631852   -4.321852   -1.550225
     33          6           0        5.687025    1.154532    0.414292
     34          6           0        6.831191    1.567225   -0.271802
     35          6           0        5.251707    1.896381    1.514415
     36          6           0        7.527485    2.693516    0.142525
     37          6           0        5.943620    3.031828    1.910808
     38          6           0        7.087137    3.435581    1.231989
     39          1           0        7.172616    0.996083   -1.132151
     40          1           0        4.364291    1.576910    2.056093
     41          1           0        8.417875    3.000945   -0.402845
     42          1           0        5.590451    3.599029    2.770050
     43          1           0        7.631350    4.322181    1.549815
     44          7           0       -4.978266    0.000020   -0.000103
     45          6           0       -5.686990    1.154558   -0.414335
     46          6           0       -6.831289    1.566980    0.271699
     47          6           0       -5.251761    1.896543   -1.514410
     48          6           0       -7.527834    2.693112   -0.142653
     49          6           0       -5.943923    3.031822   -1.910819
     50          6           0       -7.087590    3.435293   -1.232069
     51          1           0       -7.172649    0.995729    1.132000
     52          1           0       -4.364233    1.577285   -2.056034
     53          1           0       -8.418333    3.000297    0.402674
     54          1           0       -5.590850    3.599137   -2.770027
     55          1           0       -7.631979    4.321768   -1.549941
     56          6           0       -5.687017   -1.154516    0.414141
     57          6           0       -6.831068   -1.567191   -0.272109
     58          6           0       -5.251977   -1.896199    1.514492
     59          6           0       -7.527566   -2.693348    0.142281
     60          6           0       -5.944079   -3.031486    1.910953
     61          6           0       -7.087509   -3.435246    1.231958
     62          1           0       -7.172277   -0.996155   -1.132614
     63          1           0       -4.364636   -1.576682    2.056275
     64          1           0       -8.417864   -3.000787   -0.403227
     65          1           0       -5.591165   -3.598572    2.770374
     66          1           0       -7.631874   -4.321730    1.549857
 ---------------------------------------------------------------------

 SCF Done:  E(ULC-wHPBE) =  -1496.94719367     A.U. after   21 cycles

 The electronic state is 2-A.
 Alpha  occ. eigenvalues --  -14.24809 -14.24808 -10.14075 -10.14075 -10.12428
 Alpha  occ. eigenvalues --  -10.12427 -10.12427 -10.12425 -10.10725 -10.10711
 Alpha  occ. eigenvalues --  -10.09468 -10.09467 -10.09464 -10.09463 -10.09427
 Alpha  occ. eigenvalues --  -10.09426 -10.09426 -10.09426 -10.08074 -10.08074
 Alpha  occ. eigenvalues --  -10.08074 -10.08074 -10.07912 -10.07912 -10.07911
 Alpha  occ. eigenvalues --  -10.07911 -10.07506 -10.07505 -10.07505 -10.07505
 Alpha  occ. eigenvalues --  -10.07434 -10.07434 -10.07433 -10.07433 -10.07326
 Alpha  occ. eigenvalues --  -10.07326 -10.07326 -10.07325  -1.10729  -1.10725
 Alpha  occ. eigenvalues --   -1.00766  -0.99027  -0.98105  -0.98105  -0.96821
 Alpha  occ. eigenvalues --   -0.96292  -0.92100  -0.89514  -0.89181  -0.88706
 Alpha  occ. eigenvalues --   -0.88248  -0.87909  -0.87230  -0.86896  -0.86895
 Alpha  occ. eigenvalues --   -0.86809  -0.84976  -0.83350  -0.78525  -0.77855
 Alpha  occ. eigenvalues --   -0.76742  -0.75822  -0.75375  -0.74194  -0.73881
 Alpha  occ. eigenvalues --   -0.73570  -0.73415  -0.73073  -0.71244  -0.70904
 Alpha  occ. eigenvalues --   -0.68918  -0.68174  -0.67993  -0.67754  -0.65870
 Alpha  occ. eigenvalues --   -0.63541  -0.63431  -0.62913  -0.62043  -0.61755
 Alpha  occ. eigenvalues --   -0.61583  -0.60069  -0.59952  -0.59349  -0.59250
 Alpha  occ. eigenvalues --   -0.59201  -0.58454  -0.57747  -0.57509  -0.57382
 Alpha  occ. eigenvalues --   -0.57310  -0.57234  -0.57161  -0.56125  -0.55997
 Alpha  occ. eigenvalues --   -0.55798  -0.55798  -0.55525  -0.54429  -0.53943
 Alpha  occ. eigenvalues --   -0.53116  -0.52842  -0.52506  -0.52476  -0.51123
 Alpha  occ. eigenvalues --   -0.50905  -0.50410  -0.50141  -0.49912  -0.49537
 Alpha  occ. eigenvalues --   -0.49500  -0.48773  -0.48443  -0.48088  -0.48060
 Alpha  occ. eigenvalues --   -0.47438  -0.46543  -0.44178  -0.42808  -0.42788
 Alpha  occ. eigenvalues --   -0.41798  -0.41791  -0.41470  -0.40970  -0.40950
 Alpha  occ. eigenvalues --   -0.40508  -0.40347  -0.35925  -0.34741
 Alpha virt. eigenvalues --   -0.10551  -0.08377  -0.08250  -0.07261  -0.07251
 Alpha virt. eigenvalues --   -0.06586  -0.05988  -0.05867  -0.05083  -0.05050
 Alpha virt. eigenvalues --   -0.03546  -0.02402   0.00607   0.01227   0.02268

  Beta  occ. eigenvalues --  -14.24410 -14.24410 -10.14033 -10.14033 -10.12458
  Beta  occ. eigenvalues --  -10.12457 -10.12457 -10.12455 -10.10642 -10.10628
  Beta  occ. eigenvalues --  -10.09447 -10.09447 -10.09444 -10.09443 -10.09390
  Beta  occ. eigenvalues --  -10.09389 -10.09389 -10.09389 -10.08007 -10.08006
  Beta  occ. eigenvalues --  -10.08006 -10.08006 -10.07849 -10.07848 -10.07848
  Beta  occ. eigenvalues --  -10.07848 -10.07532 -10.07532 -10.07532 -10.07532
  Beta  occ. eigenvalues --  -10.07457 -10.07457 -10.07457 -10.07457 -10.07256
  Beta  occ. eigenvalues --  -10.07256 -10.07256 -10.07255  -1.10233  -1.10229
  Beta  occ. eigenvalues --   -1.00596  -0.98873  -0.98019  -0.98019  -0.96694
  Beta  occ. eigenvalues --   -0.96148  -0.91889  -0.89438  -0.89097  -0.88561
  Beta  occ. eigenvalues --   -0.88165  -0.87829  -0.87158  -0.86830  -0.86829
  Beta  occ. eigenvalues --   -0.86720  -0.84787  -0.83053  -0.78418  -0.77715
  Beta  occ. eigenvalues --   -0.76608  -0.75703  -0.75242  -0.74048  -0.73822
  Beta  occ. eigenvalues --   -0.73485  -0.73333  -0.72999  -0.71156  -0.70821
  Beta  occ. eigenvalues --   -0.68847  -0.68081  -0.67919  -0.67676  -0.65781
  Beta  occ. eigenvalues --   -0.63386  -0.63343  -0.62823  -0.61933  -0.61575
  Beta  occ. eigenvalues --   -0.61255  -0.59996  -0.59815  -0.59272  -0.59165
  Beta  occ. eigenvalues --   -0.59159  -0.58382  -0.57703  -0.57472  -0.57288
  Beta  occ. eigenvalues --   -0.57260  -0.57165  -0.57114  -0.56058  -0.55956
  Beta  occ. eigenvalues --   -0.55765  -0.55764  -0.55430  -0.54186  -0.53598
  Beta  occ. eigenvalues --   -0.52819  -0.52607  -0.52322  -0.52294  -0.51065
  Beta  occ. eigenvalues --   -0.50782  -0.50088  -0.50041  -0.49860  -0.49439
  Beta  occ. eigenvalues --   -0.49387  -0.48575  -0.48332  -0.48043  -0.48015
  Beta  occ. eigenvalues --   -0.47155  -0.45945  -0.43465  -0.42654  -0.42646
  Beta  occ. eigenvalues --   -0.41427  -0.41419  -0.40717  -0.40700  -0.40665
  Beta  occ. eigenvalues --   -0.40348  -0.39647  -0.31782
  Beta virt. eigenvalues --   -0.23526  -0.10190  -0.08132  -0.07982  -0.06979
  Beta virt. eigenvalues --   -0.06964  -0.06153  -0.05777  -0.05595  -0.04892
  Beta virt. eigenvalues --   -0.04828  -0.03015  -0.01817   0.00646   0.01271

 Mulliken charges and spin densities:
               1          2
     1  C   -0.108659   0.028683
     2  C   -0.040091   0.041598
     3  C   -0.133494  -0.000335
     4  C   -0.108689   0.028693
     5  C    0.035176   0.056664
     6  C   -0.133486  -0.000337
     7  H    0.147902  -0.000234
     8  H    0.168828  -0.001229
     9  H    0.147902  -0.000234
    10  C    0.035266   0.056586
    11  C   -0.133509  -0.000296
    12  C   -0.133505  -0.000307
    13  C   -0.108336   0.028629
    14  C   -0.108455   0.028640
    15  C   -0.040716   0.041616
    16  H    0.147904  -0.000235
    17  H    0.147906  -0.000235
    18  H    0.168750  -0.001226
    19  H    0.168774  -0.001227
    20  H    0.168820  -0.001229
    21  N    0.042438   0.180654
    22  C   -0.064317  -0.013371
    23  C   -0.100514   0.046895
    24  C   -0.098561   0.047006
    25  C   -0.106793  -0.025608
    26  C   -0.107012  -0.027415
    27  C   -0.081243   0.060774
    28  H    0.166632  -0.001931
    29  H    0.156236  -0.002163
    30  H    0.131556   0.001216
    31  H    0.128360   0.001437
    32  H    0.132470  -0.003082
    33  C   -0.064726  -0.013359
    34  C   -0.100361   0.046847
    35  C   -0.098358   0.046961
    36  C   -0.106810  -0.025582
    37  C   -0.107014  -0.027388
    38  C   -0.081212   0.060706
    39  H    0.166605  -0.001929
    40  H    0.156178  -0.002160
    41  H    0.131556   0.001216
    42  H    0.128363   0.001436
    43  H    0.132472  -0.003079
    44  N    0.042424   0.180655
    45  C   -0.064696  -0.013362
    46  C   -0.100253   0.046845
    47  C   -0.098487   0.046953
    48  C   -0.106794  -0.025577
    49  C   -0.107020  -0.027384
    50  C   -0.081223   0.060697
    51  H    0.166559  -0.001929
    52  H    0.156224  -0.002160
    53  H    0.131556   0.001216
    54  H    0.128362   0.001436
    55  H    0.132472  -0.003078
    56  C   -0.064897  -0.013356
    57  C   -0.100186   0.046828
    58  C   -0.098375   0.046934
    59  C   -0.106807  -0.025567
    60  C   -0.107031  -0.027373
    61  C   -0.081208   0.060671
    62  H    0.166542  -0.001928
    63  H    0.156211  -0.002159
    64  H    0.131557   0.001215
    65  H    0.128363   0.001436
    66  H    0.132472  -0.003077
 Sum of Mulliken charges =   1.00000   1.00000

 Dipole moment (field-independent basis, Debye):
    X=             -0.0004    Y=              0.0002    Z=              0.0001  Tot=              0.0005
 Quadrupole moment (field-independent basis, Debye-Ang):
   XX=            -41.7114   YY=           -172.8051   ZZ=           -206.5534
   XY=              0.0061   XZ=             -0.0006   YZ=             -0.0031

 Normal termination of Gaussian 16 at Mon Jan 18 03:34:23 2021.
