 Gaussian 16, Revision A.03,
 Gaussian 16:  EM64L-G16RevA.03 25-Dec-2016

 ----------------------------------------------------------------------
 #P LC-wHPBE/TZVP iop(3/107=0167700000, 3/108=0167700000) scf=(conver=6
 ,fermi,ndamp=35,noincfock,novaracc,vshift=500,xqc)
 ----------------------------------------------------------------------

 ----------
 H28 C36 N2
 ----------
 Symbolic Z-matrix:
 Charge =  0 Multiplicity = 1

                         Standard orientation:
 ---------------------------------------------------------------------
 Center     Atomic      Atomic             Coordinates (Angstroms)
 Number     Number       Type             X           Y           Z
 ---------------------------------------------------------------------
      1          6           0       -2.849999   -1.125861   -0.415638
      2          6           0       -3.563139   -0.000026    0.000017
      3          6           0       -1.464492   -1.123667   -0.405534
      4          6           0       -2.850033    1.125752    0.415809
      5          6           0       -0.741288   -0.000047    0.000195
      6          6           0       -1.464504    1.123547    0.405879
      7          1           0       -0.931596   -2.005844   -0.756198
      8          1           0       -3.391048    2.006254    0.754990
      9          1           0       -0.931669    2.005728    0.756629
     10          6           0        0.741437   -0.000073    0.000217
     11          6           0        1.464635    1.123165   -0.406556
     12          6           0        1.464638   -1.123302    0.406976
     13          6           0        2.850149    1.125343   -0.416610
     14          6           0        2.850163   -1.125491    0.416935
     15          6           0        3.563257   -0.000095    0.000116
     16          1           0        0.931751    2.005025   -0.758038
     17          1           0        0.931783   -2.005140    0.758553
     18          1           0        3.391193    2.005527   -0.756576
     19          1           0        3.391211   -2.005669    0.756913
     20          1           0       -3.391005   -2.006357   -0.754845
     21          7           0        4.978430   -0.000102    0.000065
     22          6           0        5.687099   -1.154578   -0.414287
     23          6           0        6.831881   -1.566674    0.271150
     24          6           0        5.251323   -1.896933   -1.513908
     25          6           0        7.528311   -2.692826   -0.143324
     26          6           0        5.943392   -3.032223   -1.910440
     27          6           0        7.087522   -3.435368   -1.232277
     28          1           0        7.173684   -0.995181    1.131117
     29          1           0        4.363437   -1.577947   -2.055099
     30          1           0        8.419174   -2.999763    0.401550
     31          1           0        5.589860   -3.599797   -2.769285
     32          1           0        7.631852   -4.321852   -1.550225
     33          6           0        5.687025    1.154532    0.414292
     34          6           0        6.831191    1.567225   -0.271802
     35          6           0        5.251707    1.896381    1.514415
     36          6           0        7.527485    2.693516    0.142525
     37          6           0        5.943620    3.031828    1.910808
     38          6           0        7.087137    3.435581    1.231989
     39          1           0        7.172616    0.996083   -1.132151
     40          1           0        4.364291    1.576910    2.056093
     41          1           0        8.417875    3.000945   -0.402845
     42          1           0        5.590451    3.599029    2.770050
     43          1           0        7.631350    4.322181    1.549815
     44          7           0       -4.978266    0.000020   -0.000103
     45          6           0       -5.686990    1.154558   -0.414335
     46          6           0       -6.831289    1.566980    0.271699
     47          6           0       -5.251761    1.896543   -1.514410
     48          6           0       -7.527834    2.693112   -0.142653
     49          6           0       -5.943923    3.031822   -1.910819
     50          6           0       -7.087590    3.435293   -1.232069
     51          1           0       -7.172649    0.995729    1.132000
     52          1           0       -4.364233    1.577285   -2.056034
     53          1           0       -8.418333    3.000297    0.402674
     54          1           0       -5.590850    3.599137   -2.770027
     55          1           0       -7.631979    4.321768   -1.549941
     56          6           0       -5.687017   -1.154516    0.414141
     57          6           0       -6.831068   -1.567191   -0.272109
     58          6           0       -5.251977   -1.896199    1.514492
     59          6           0       -7.527566   -2.693348    0.142281
     60          6           0       -5.944079   -3.031486    1.910953
     61          6           0       -7.087509   -3.435246    1.231958
     62          1           0       -7.172277   -0.996155   -1.132614
     63          1           0       -4.364636   -1.576682    2.056275
     64          1           0       -8.417864   -3.000787   -0.403227
     65          1           0       -5.591165   -3.598572    2.770374
     66          1           0       -7.631874   -4.321730    1.549857
 ---------------------------------------------------------------------

 SCF Done:  E(RLC-wHPBE) =  -1497.18183868     A.U. after   13 cycles

 The electronic state is 1-A.
 Alpha  occ. eigenvalues --  -14.11533 -14.11532 -10.02356 -10.02356 -10.02355
 Alpha  occ. eigenvalues --  -10.02354 -10.02276 -10.02275  -9.98948  -9.98934
 Alpha  occ. eigenvalues --   -9.98341  -9.98340  -9.98340  -9.98339  -9.98339
 Alpha  occ. eigenvalues --   -9.98338  -9.98338  -9.98336  -9.98279  -9.98278
 Alpha  occ. eigenvalues --   -9.98276  -9.98275  -9.98089  -9.98088  -9.98088
 Alpha  occ. eigenvalues --   -9.98087  -9.98072  -9.98071  -9.98071  -9.98069
 Alpha  occ. eigenvalues --   -9.98067  -9.98067  -9.98066  -9.98064  -9.97873
 Alpha  occ. eigenvalues --   -9.97872  -9.97872  -9.97870  -0.98881  -0.98877
 Alpha  occ. eigenvalues --   -0.89416  -0.88385  -0.88383  -0.88094  -0.86911
 Alpha  occ. eigenvalues --   -0.86070  -0.80887  -0.79045  -0.78968  -0.78321
 Alpha  occ. eigenvalues --   -0.77769  -0.77663  -0.77444  -0.77425  -0.77155
 Alpha  occ. eigenvalues --   -0.76895  -0.74823  -0.72809  -0.67799  -0.67071
 Alpha  occ. eigenvalues --   -0.66484  -0.65546  -0.65034  -0.64121  -0.64089
 Alpha  occ. eigenvalues --   -0.63976  -0.63081  -0.63006  -0.61314  -0.60688
 Alpha  occ. eigenvalues --   -0.58370  -0.58195  -0.57971  -0.57737  -0.55404
 Alpha  occ. eigenvalues --   -0.53883  -0.52943  -0.52838  -0.52273  -0.51723
 Alpha  occ. eigenvalues --   -0.51004  -0.50007  -0.49740  -0.49520  -0.49041
 Alpha  occ. eigenvalues --   -0.48588  -0.48549  -0.48158  -0.47711  -0.47672
 Alpha  occ. eigenvalues --   -0.47560  -0.46903  -0.46714  -0.46650  -0.46509
 Alpha  occ. eigenvalues --   -0.46503  -0.46200  -0.44643  -0.43421  -0.43231
 Alpha  occ. eigenvalues --   -0.42940  -0.42868  -0.42817  -0.42490  -0.41218
 Alpha  occ. eigenvalues --   -0.40881  -0.40388  -0.40197  -0.39882  -0.39814
 Alpha  occ. eigenvalues --   -0.39575  -0.38979  -0.38750  -0.38572  -0.38385
 Alpha  occ. eigenvalues --   -0.36680  -0.36024  -0.33450  -0.32250  -0.32225
 Alpha  occ. eigenvalues --   -0.32188  -0.32184  -0.31333  -0.31086  -0.31032
 Alpha  occ. eigenvalues --   -0.30994  -0.30185  -0.24770  -0.23341
 Alpha virt. eigenvalues --    0.00442   0.01844   0.01901   0.02293   0.02295
 Alpha virt. eigenvalues --    0.03800   0.04084   0.04271   0.04310   0.04319
 Alpha virt. eigenvalues --    0.06487   0.08221   0.09759   0.09974   0.10747

 Mulliken charges:
               1
     1  C   -0.121045
     2  C   -0.036255
     3  C   -0.149334
     4  C   -0.121071
     5  C    0.034893
     6  C   -0.149323
     7  H    0.122202
     8  H    0.142181
     9  H    0.122200
    10  C    0.034984
    11  C   -0.149347
    12  C   -0.149339
    13  C   -0.120720
    14  C   -0.120827
    15  C   -0.036851
    16  H    0.122204
    17  H    0.122205
    18  H    0.142105
    19  H    0.142127
    20  H    0.142174
    21  N   -0.001675
    22  C   -0.054183
    23  C   -0.112863
    24  C   -0.106930
    25  C   -0.109431
    26  C   -0.109436
    27  C   -0.099697
    28  H    0.146776
    29  H    0.145063
    30  H    0.103224
    31  H    0.103188
    32  H    0.101868
    33  C   -0.054589
    34  C   -0.112690
    35  C   -0.106708
    36  C   -0.109447
    37  C   -0.109438
    38  C   -0.099653
    39  H    0.146757
    40  H    0.145003
    41  H    0.103231
    42  H    0.103194
    43  H    0.101879
    44  N   -0.001683
    45  C   -0.054566
    46  C   -0.112590
    47  C   -0.106835
    48  C   -0.109430
    49  C   -0.109440
    50  C   -0.099660
    51  H    0.146714
    52  H    0.145048
    53  H    0.103232
    54  H    0.103196
    55  H    0.101881
    56  C   -0.054765
    57  C   -0.112518
    58  C   -0.106715
    59  C   -0.109441
    60  C   -0.109452
    61  C   -0.099639
    62  H    0.146698
    63  H    0.145038
    64  H    0.103236
    65  H    0.103199
    66  H    0.101884
 Sum of Mulliken charges =  -0.00000

 Dipole moment (field-independent basis, Debye):
    X=             -0.0038    Y=              0.0007    Z=              0.0005  Tot=              0.0039
 Quadrupole moment (field-independent basis, Debye-Ang):
   XX=           -204.9291   YY=           -207.1592   ZZ=           -218.1251
   XY=              0.0143   XZ=              0.0007   YZ=             -0.0051

 1\1\GINC-CASCADEB019\SP\RLC-wHPBE\TZVP\C36H28N2\RDU230\18-Jan-2021\0\\
 #P LC-wHPBE/TZVP iop(3/107=0167700000, 3/108=0167700000) scf=(conver=6
 ,fermi,ndamp=35,noincfock,novaracc,vshift=500,xqc)\\H28 C36 N2\\0,1\C,
 0,2.849999,-1.125861,0.415638\C,0,3.563139,-0.000026,-0.000017\C,0,1.4
 64492,-1.123667,0.405534\C,0,2.850033,1.125752,-0.415809\C,0,0.741288,
 -0.000047,-0.000195\C,0,1.464504,1.123547,-0.405879\H,0,0.931596,-2.00
 5844,0.756198\H,0,3.391048,2.006254,-0.75499\H,0,0.931669,2.005728,-0.
 756629\C,0,-0.741437,-0.000073,-0.000217\C,0,-1.464635,1.123165,0.4065

 Normal termination of Gaussian 16 at Mon Jan 18 03:05:06 2021.
