 Gaussian 16, Revision A.03,
 Gaussian 16:  EM64L-G16RevA.03 25-Dec-2016

 ----------------------------------------------------------------------
 #P LC-wHPBE/TZVP iop(3/107=0328100000, 3/108=0328100000) scf=(conver=6
 ,fermi,ndamp=35,noincfock,novaracc,vshift=500,xqc)
 ----------------------------------------------------------------------

 ----------
 H28 C36 N2
 ----------
 Symbolic Z-matrix:
 Charge =  0 Multiplicity = 1

                         Standard orientation:
 ---------------------------------------------------------------------
 Center     Atomic      Atomic             Coordinates (Angstroms)
 Number     Number       Type             X           Y           Z
 ---------------------------------------------------------------------
      1          6           0       -2.849999   -1.125861   -0.415638
      2          6           0       -3.563139   -0.000026    0.000017
      3          6           0       -1.464492   -1.123667   -0.405534
      4          6           0       -2.850033    1.125752    0.415809
      5          6           0       -0.741288   -0.000047    0.000195
      6          6           0       -1.464504    1.123547    0.405879
      7          1           0       -0.931596   -2.005844   -0.756198
      8          1           0       -3.391048    2.006254    0.754990
      9          1           0       -0.931669    2.005728    0.756629
     10          6           0        0.741437   -0.000073    0.000217
     11          6           0        1.464635    1.123165   -0.406556
     12          6           0        1.464638   -1.123302    0.406976
     13          6           0        2.850149    1.125343   -0.416610
     14          6           0        2.850163   -1.125491    0.416935
     15          6           0        3.563257   -0.000095    0.000116
     16          1           0        0.931751    2.005025   -0.758038
     17          1           0        0.931783   -2.005140    0.758553
     18          1           0        3.391193    2.005527   -0.756576
     19          1           0        3.391211   -2.005669    0.756913
     20          1           0       -3.391005   -2.006357   -0.754845
     21          7           0        4.978430   -0.000102    0.000065
     22          6           0        5.687099   -1.154578   -0.414287
     23          6           0        6.831881   -1.566674    0.271150
     24          6           0        5.251323   -1.896933   -1.513908
     25          6           0        7.528311   -2.692826   -0.143324
     26          6           0        5.943392   -3.032223   -1.910440
     27          6           0        7.087522   -3.435368   -1.232277
     28          1           0        7.173684   -0.995181    1.131117
     29          1           0        4.363437   -1.577947   -2.055099
     30          1           0        8.419174   -2.999763    0.401550
     31          1           0        5.589860   -3.599797   -2.769285
     32          1           0        7.631852   -4.321852   -1.550225
     33          6           0        5.687025    1.154532    0.414292
     34          6           0        6.831191    1.567225   -0.271802
     35          6           0        5.251707    1.896381    1.514415
     36          6           0        7.527485    2.693516    0.142525
     37          6           0        5.943620    3.031828    1.910808
     38          6           0        7.087137    3.435581    1.231989
     39          1           0        7.172616    0.996083   -1.132151
     40          1           0        4.364291    1.576910    2.056093
     41          1           0        8.417875    3.000945   -0.402845
     42          1           0        5.590451    3.599029    2.770050
     43          1           0        7.631350    4.322181    1.549815
     44          7           0       -4.978266    0.000020   -0.000103
     45          6           0       -5.686990    1.154558   -0.414335
     46          6           0       -6.831289    1.566980    0.271699
     47          6           0       -5.251761    1.896543   -1.514410
     48          6           0       -7.527834    2.693112   -0.142653
     49          6           0       -5.943923    3.031822   -1.910819
     50          6           0       -7.087590    3.435293   -1.232069
     51          1           0       -7.172649    0.995729    1.132000
     52          1           0       -4.364233    1.577285   -2.056034
     53          1           0       -8.418333    3.000297    0.402674
     54          1           0       -5.590850    3.599137   -2.770027
     55          1           0       -7.631979    4.321768   -1.549941
     56          6           0       -5.687017   -1.154516    0.414141
     57          6           0       -6.831068   -1.567191   -0.272109
     58          6           0       -5.251977   -1.896199    1.514492
     59          6           0       -7.527566   -2.693348    0.142281
     60          6           0       -5.944079   -3.031486    1.910953
     61          6           0       -7.087509   -3.435246    1.231958
     62          1           0       -7.172277   -0.996155   -1.132614
     63          1           0       -4.364636   -1.576682    2.056275
     64          1           0       -8.417864   -3.000787   -0.403227
     65          1           0       -5.591165   -3.598572    2.770374
     66          1           0       -7.631874   -4.321730    1.549857
 ---------------------------------------------------------------------

 SCF Done:  E(RLC-wHPBE) =  -1497.45498587     A.U. after   14 cycles

 The electronic state is 1-A.
 Alpha  occ. eigenvalues --  -14.19888 -14.19888 -10.11516 -10.11515 -10.11513
 Alpha  occ. eigenvalues --  -10.11513 -10.11447 -10.11446 -10.08018 -10.08004
 Alpha  occ. eigenvalues --  -10.07393 -10.07392 -10.07392 -10.07391 -10.07390
 Alpha  occ. eigenvalues --  -10.07389 -10.07389 -10.07388 -10.07351 -10.07351
 Alpha  occ. eigenvalues --  -10.07348 -10.07347 -10.07088 -10.07087 -10.07086
 Alpha  occ. eigenvalues --  -10.07085 -10.07052 -10.07052 -10.07051 -10.07049
 Alpha  occ. eigenvalues --  -10.07045 -10.07045 -10.07044 -10.07043 -10.06882
 Alpha  occ. eigenvalues --  -10.06881 -10.06881 -10.06879  -1.08082  -1.08076
 Alpha  occ. eigenvalues --   -0.98876  -0.97745  -0.97744  -0.97432  -0.96141
 Alpha  occ. eigenvalues --   -0.95223  -0.89719  -0.87777  -0.87671  -0.87020
 Alpha  occ. eigenvalues --   -0.86491  -0.86371  -0.86128  -0.86096  -0.85810
 Alpha  occ. eigenvalues --   -0.85444  -0.83177  -0.80983  -0.75492  -0.74823
 Alpha  occ. eigenvalues --   -0.74097  -0.73156  -0.72685  -0.71726  -0.71673
 Alpha  occ. eigenvalues --   -0.71539  -0.70583  -0.70429  -0.68622  -0.67964
 Alpha  occ. eigenvalues --   -0.65410  -0.65167  -0.64922  -0.64597  -0.62240
 Alpha  occ. eigenvalues --   -0.60556  -0.59452  -0.59437  -0.58755  -0.58296
 Alpha  occ. eigenvalues --   -0.57611  -0.56397  -0.56133  -0.55829  -0.55373
 Alpha  occ. eigenvalues --   -0.54897  -0.54838  -0.54408  -0.53846  -0.53777
 Alpha  occ. eigenvalues --   -0.53756  -0.53098  -0.52870  -0.52793  -0.52622
 Alpha  occ. eigenvalues --   -0.52613  -0.52297  -0.50460  -0.49682  -0.49467
 Alpha  occ. eigenvalues --   -0.49128  -0.49094  -0.48991  -0.48652  -0.46780
 Alpha  occ. eigenvalues --   -0.46407  -0.45905  -0.45664  -0.45405  -0.45387
 Alpha  occ. eigenvalues --   -0.44982  -0.44350  -0.44111  -0.43891  -0.43713
 Alpha  occ. eigenvalues --   -0.41870  -0.41212  -0.37666  -0.36239  -0.36204
 Alpha  occ. eigenvalues --   -0.36187  -0.36172  -0.35258  -0.34998  -0.34928
 Alpha  occ. eigenvalues --   -0.34913  -0.33869  -0.28110  -0.26478
 Alpha virt. eigenvalues --    0.02950   0.04577   0.04635   0.05066   0.05068
 Alpha virt. eigenvalues --    0.06690   0.07112   0.07341   0.07369   0.07378
 Alpha virt. eigenvalues --    0.09554   0.11498   0.12586   0.12828   0.13605

 Mulliken charges:
               1
     1  C   -0.131044
     2  C   -0.055394
     3  C   -0.167382
     4  C   -0.131069
     5  C    0.020700
     6  C   -0.167369
     7  H    0.147753
     8  H    0.169892
     9  H    0.147751
    10  C    0.020793
    11  C   -0.167403
    12  C   -0.167397
    13  C   -0.130720
    14  C   -0.130807
    15  C   -0.055992
    16  H    0.147755
    17  H    0.147756
    18  H    0.169814
    19  H    0.169836
    20  H    0.169886
    21  N   -0.055431
    22  C   -0.054266
    23  C   -0.133762
    24  C   -0.127788
    25  C   -0.124762
    26  C   -0.124390
    27  C   -0.128532
    28  H    0.173344
    29  H    0.171985
    30  H    0.125028
    31  H    0.124998
    32  H    0.124054
    33  C   -0.054673
    34  C   -0.133577
    35  C   -0.127564
    36  C   -0.124784
    37  C   -0.124400
    38  C   -0.128481
    39  H    0.173321
    40  H    0.171924
    41  H    0.125034
    42  H    0.125004
    43  H    0.124064
    44  N   -0.055440
    45  C   -0.054648
    46  C   -0.133497
    47  C   -0.127673
    48  C   -0.124766
    49  C   -0.124402
    50  C   -0.128488
    51  H    0.173279
    52  H    0.171968
    53  H    0.125035
    54  H    0.125005
    55  H    0.124065
    56  C   -0.054844
    57  C   -0.133416
    58  C   -0.127560
    59  C   -0.124782
    60  C   -0.124414
    61  C   -0.128464
    62  H    0.173263
    63  H    0.171957
    64  H    0.125038
    65  H    0.125008
    66  H    0.124068
 Sum of Mulliken charges =  -0.00000

 Dipole moment (field-independent basis, Debye):
    X=             -0.0035    Y=              0.0007    Z=              0.0005  Tot=              0.0036
 Quadrupole moment (field-independent basis, Debye-Ang):
   XX=           -202.8859   YY=           -205.0946   ZZ=           -216.9071
   XY=              0.0141   XZ=              0.0005   YZ=             -0.0051

 1\1\GINC-CASCADEB019\SP\RLC-wHPBE\TZVP\C36H28N2\RDU230\17-Jan-2021\0\\
 #P LC-wHPBE/TZVP iop(3/107=0328100000, 3/108=0328100000) scf=(conver=6
 ,fermi,ndamp=35,noincfock,novaracc,vshift=500,xqc)\\H28 C36 N2\\0,1\C,
 0,2.849999,-1.125861,0.415638\C,0,3.563139,-0.000026,-0.000017\C,0,1.4
 64492,-1.123667,0.405534\C,0,2.850033,1.125752,-0.415809\C,0,0.741288,
 -0.000047,-0.000195\C,0,1.464504,1.123547,-0.405879\H,0,0.931596,-2.00
 5844,0.756198\H,0,3.391048,2.006254,-0.75499\H,0,0.931669,2.005728,-0.
 756629\C,0,-0.741437,-0.000073,-0.000217\C,0,-1.464635,1.123165,0.4065

 Normal termination of Gaussian 16 at Sun Jan 17 22:32:25 2021.
