 Gaussian 16, Revision A.03,
 Gaussian 16:  EM64L-G16RevA.03 25-Dec-2016

 ----------------------------------------------------------------------
 #P LC-wHPBE/TZVP iop(3/107=0221900000, 3/108=0221900000) scf=(conver=6
 ,fermi,ndamp=35,noincfock,novaracc,vshift=500,xqc)
 ----------------------------------------------------------------------

 ----------
 H28 C36 N2
 ----------
 Symbolic Z-matrix:
 Charge =  0 Multiplicity = 1

                         Standard orientation:
 ---------------------------------------------------------------------
 Center     Atomic      Atomic             Coordinates (Angstroms)
 Number     Number       Type             X           Y           Z
 ---------------------------------------------------------------------
      1          6           0       -2.849999   -1.125861   -0.415638
      2          6           0       -3.563139   -0.000026    0.000017
      3          6           0       -1.464492   -1.123667   -0.405534
      4          6           0       -2.850033    1.125752    0.415809
      5          6           0       -0.741288   -0.000047    0.000195
      6          6           0       -1.464504    1.123547    0.405879
      7          1           0       -0.931596   -2.005844   -0.756198
      8          1           0       -3.391048    2.006254    0.754990
      9          1           0       -0.931669    2.005728    0.756629
     10          6           0        0.741437   -0.000073    0.000217
     11          6           0        1.464635    1.123165   -0.406556
     12          6           0        1.464638   -1.123302    0.406976
     13          6           0        2.850149    1.125343   -0.416610
     14          6           0        2.850163   -1.125491    0.416935
     15          6           0        3.563257   -0.000095    0.000116
     16          1           0        0.931751    2.005025   -0.758038
     17          1           0        0.931783   -2.005140    0.758553
     18          1           0        3.391193    2.005527   -0.756576
     19          1           0        3.391211   -2.005669    0.756913
     20          1           0       -3.391005   -2.006357   -0.754845
     21          7           0        4.978430   -0.000102    0.000065
     22          6           0        5.687099   -1.154578   -0.414287
     23          6           0        6.831881   -1.566674    0.271150
     24          6           0        5.251323   -1.896933   -1.513908
     25          6           0        7.528311   -2.692826   -0.143324
     26          6           0        5.943392   -3.032223   -1.910440
     27          6           0        7.087522   -3.435368   -1.232277
     28          1           0        7.173684   -0.995181    1.131117
     29          1           0        4.363437   -1.577947   -2.055099
     30          1           0        8.419174   -2.999763    0.401550
     31          1           0        5.589860   -3.599797   -2.769285
     32          1           0        7.631852   -4.321852   -1.550225
     33          6           0        5.687025    1.154532    0.414292
     34          6           0        6.831191    1.567225   -0.271802
     35          6           0        5.251707    1.896381    1.514415
     36          6           0        7.527485    2.693516    0.142525
     37          6           0        5.943620    3.031828    1.910808
     38          6           0        7.087137    3.435581    1.231989
     39          1           0        7.172616    0.996083   -1.132151
     40          1           0        4.364291    1.576910    2.056093
     41          1           0        8.417875    3.000945   -0.402845
     42          1           0        5.590451    3.599029    2.770050
     43          1           0        7.631350    4.322181    1.549815
     44          7           0       -4.978266    0.000020   -0.000103
     45          6           0       -5.686990    1.154558   -0.414335
     46          6           0       -6.831289    1.566980    0.271699
     47          6           0       -5.251761    1.896543   -1.514410
     48          6           0       -7.527834    2.693112   -0.142653
     49          6           0       -5.943923    3.031822   -1.910819
     50          6           0       -7.087590    3.435293   -1.232069
     51          1           0       -7.172649    0.995729    1.132000
     52          1           0       -4.364233    1.577285   -2.056034
     53          1           0       -8.418333    3.000297    0.402674
     54          1           0       -5.590850    3.599137   -2.770027
     55          1           0       -7.631979    4.321768   -1.549941
     56          6           0       -5.687017   -1.154516    0.414141
     57          6           0       -6.831068   -1.567191   -0.272109
     58          6           0       -5.251977   -1.896199    1.514492
     59          6           0       -7.527566   -2.693348    0.142281
     60          6           0       -5.944079   -3.031486    1.910953
     61          6           0       -7.087509   -3.435246    1.231958
     62          1           0       -7.172277   -0.996155   -1.132614
     63          1           0       -4.364636   -1.576682    2.056275
     64          1           0       -8.417864   -3.000787   -0.403227
     65          1           0       -5.591165   -3.598572    2.770374
     66          1           0       -7.631874   -4.321730    1.549857
 ---------------------------------------------------------------------

 SCF Done:  E(RLC-wHPBE) =  -1497.29081481     A.U. after   14 cycles

 The electronic state is 1-A.
 Alpha  occ. eigenvalues --  -14.14345 -14.14344 -10.05444 -10.05444 -10.05443
 Alpha  occ. eigenvalues --  -10.05442 -10.05371 -10.05369 -10.02013 -10.02000
 Alpha  occ. eigenvalues --  -10.01398 -10.01398 -10.01397 -10.01396 -10.01395
 Alpha  occ. eigenvalues --  -10.01395 -10.01395 -10.01393 -10.01342 -10.01342
 Alpha  occ. eigenvalues --  -10.01340 -10.01338 -10.01126 -10.01125 -10.01125
 Alpha  occ. eigenvalues --  -10.01124 -10.01104 -10.01103 -10.01103 -10.01101
 Alpha  occ. eigenvalues --  -10.01097 -10.01097 -10.01096 -10.01094 -10.00921
 Alpha  occ. eigenvalues --  -10.00920 -10.00920 -10.00918  -1.02021  -1.02016
 Alpha  occ. eigenvalues --   -0.92668  -0.91612  -0.91610  -0.91317  -0.90110
 Alpha  occ. eigenvalues --   -0.89252  -0.84000  -0.82131  -0.82046  -0.81399
 Alpha  occ. eigenvalues --   -0.80854  -0.80743  -0.80516  -0.80494  -0.80220
 Alpha  occ. eigenvalues --   -0.79933  -0.77812  -0.75749  -0.70617  -0.69909
 Alpha  occ. eigenvalues --   -0.69278  -0.68339  -0.67840  -0.66910  -0.66875
 Alpha  occ. eigenvalues --   -0.66754  -0.65842  -0.65745  -0.64028  -0.63399
 Alpha  occ. eigenvalues --   -0.61033  -0.60834  -0.60602  -0.60336  -0.58002
 Alpha  occ. eigenvalues --   -0.56423  -0.55419  -0.55347  -0.54741  -0.54219
 Alpha  occ. eigenvalues --   -0.53510  -0.52446  -0.52184  -0.51930  -0.51463
 Alpha  occ. eigenvalues --   -0.51008  -0.50956  -0.50550  -0.50068  -0.50017
 Alpha  occ. eigenvalues --   -0.49941  -0.49280  -0.49079  -0.49006  -0.48851
 Alpha  occ. eigenvalues --   -0.48844  -0.48540  -0.46886  -0.45908  -0.45671
 Alpha  occ. eigenvalues --   -0.45362  -0.45355  -0.45284  -0.44950  -0.43379
 Alpha  occ. eigenvalues --   -0.43027  -0.42534  -0.42320  -0.42039  -0.41997
 Alpha  occ. eigenvalues --   -0.41677  -0.41073  -0.40839  -0.40644  -0.40474
 Alpha  occ. eigenvalues --   -0.38754  -0.38113  -0.35245  -0.33966  -0.33939
 Alpha  occ. eigenvalues --   -0.33912  -0.33900  -0.33022  -0.32772  -0.32709
 Alpha  occ. eigenvalues --   -0.32684  -0.31773  -0.26167  -0.24667
 Alpha virt. eigenvalues --    0.01612   0.03144   0.03197   0.03579   0.03580
 Alpha virt. eigenvalues --    0.05133   0.05494   0.05693   0.05723   0.05732
 Alpha virt. eigenvalues --    0.07906   0.09727   0.11073   0.11296   0.12073

 Mulliken charges:
               1
     1  C   -0.122235
     2  C   -0.040937
     3  C   -0.156029
     4  C   -0.122261
     5  C    0.032130
     6  C   -0.156017
     7  H    0.128896
     8  H    0.149605
     9  H    0.128893
    10  C    0.032222
    11  C   -0.156046
    12  C   -0.156038
    13  C   -0.121907
    14  C   -0.122006
    15  C   -0.041538
    16  H    0.128897
    17  H    0.128898
    18  H    0.149528
    19  H    0.149550
    20  H    0.149598
    21  N   -0.019352
    22  C   -0.051462
    23  C   -0.117672
    24  C   -0.111488
    25  C   -0.114541
    26  C   -0.114410
    27  C   -0.107104
    28  H    0.153858
    29  H    0.152246
    30  H    0.108569
    31  H    0.108532
    32  H    0.107380
    33  C   -0.051871
    34  C   -0.117492
    35  C   -0.111263
    36  C   -0.114560
    37  C   -0.114416
    38  C   -0.107056
    39  H    0.153837
    40  H    0.152185
    41  H    0.108575
    42  H    0.108538
    43  H    0.107390
    44  N   -0.019361
    45  C   -0.051846
    46  C   -0.117400
    47  C   -0.111383
    48  C   -0.114543
    49  C   -0.114417
    50  C   -0.107063
    51  H    0.153794
    52  H    0.152230
    53  H    0.108576
    54  H    0.108540
    55  H    0.107392
    56  C   -0.052045
    57  C   -0.117323
    58  C   -0.111263
    59  C   -0.114556
    60  C   -0.114431
    61  C   -0.107041
    62  H    0.153778
    63  H    0.152220
    64  H    0.108580
    65  H    0.108543
    66  H    0.107395
 Sum of Mulliken charges =  -0.00000

 Dipole moment (field-independent basis, Debye):
    X=             -0.0037    Y=              0.0007    Z=              0.0005  Tot=              0.0038
 Quadrupole moment (field-independent basis, Debye-Ang):
   XX=           -204.2820   YY=           -206.4750   ZZ=           -217.6935
   XY=              0.0143   XZ=              0.0006   YZ=             -0.0051

 1\1\GINC-CASCADEB019\SP\RLC-wHPBE\TZVP\C36H28N2\RDU230\17-Jan-2021\0\\
 #P LC-wHPBE/TZVP iop(3/107=0221900000, 3/108=0221900000) scf=(conver=6
 ,fermi,ndamp=35,noincfock,novaracc,vshift=500,xqc)\\H28 C36 N2\\0,1\C,
 0,2.849999,-1.125861,0.415638\C,0,3.563139,-0.000026,-0.000017\C,0,1.4
 64492,-1.123667,0.405534\C,0,2.850033,1.125752,-0.415809\C,0,0.741288,
 -0.000047,-0.000195\C,0,1.464504,1.123547,-0.405879\H,0,0.931596,-2.00
 5844,0.756198\H,0,3.391048,2.006254,-0.75499\H,0,0.931669,2.005728,-0.
 756629\C,0,-0.741437,-0.000073,-0.000217\C,0,-1.464635,1.123165,0.4065

 Normal termination of Gaussian 16 at Sun Jan 17 21:45:01 2021.
