 Gaussian 16, Revision A.03,
 Gaussian 16:  EM64L-G16RevA.03 25-Dec-2016

 ----------------------------------------------------------------------
 #P LC-wHPBE/TZVP iop(3/107=0174800000, 3/108=0174800000) scf=(conver=6
 ,fermi,ndamp=35,noincfock,novaracc,vshift=500,xqc)
 ----------------------------------------------------------------------

 ----------
 H28 C36 N2
 ----------
 Symbolic Z-matrix:
 Charge =  1 Multiplicity = 2

                         Standard orientation:
 ---------------------------------------------------------------------
 Center     Atomic      Atomic             Coordinates (Angstroms)
 Number     Number       Type             X           Y           Z
 ---------------------------------------------------------------------
      1          6           0       -2.849999   -1.125861   -0.415638
      2          6           0       -3.563139   -0.000026    0.000017
      3          6           0       -1.464492   -1.123667   -0.405534
      4          6           0       -2.850033    1.125752    0.415809
      5          6           0       -0.741288   -0.000047    0.000195
      6          6           0       -1.464504    1.123547    0.405879
      7          1           0       -0.931596   -2.005844   -0.756198
      8          1           0       -3.391048    2.006254    0.754990
      9          1           0       -0.931669    2.005728    0.756629
     10          6           0        0.741437   -0.000073    0.000217
     11          6           0        1.464635    1.123165   -0.406556
     12          6           0        1.464638   -1.123302    0.406976
     13          6           0        2.850149    1.125343   -0.416610
     14          6           0        2.850163   -1.125491    0.416935
     15          6           0        3.563257   -0.000095    0.000116
     16          1           0        0.931751    2.005025   -0.758038
     17          1           0        0.931783   -2.005140    0.758553
     18          1           0        3.391193    2.005527   -0.756576
     19          1           0        3.391211   -2.005669    0.756913
     20          1           0       -3.391005   -2.006357   -0.754845
     21          7           0        4.978430   -0.000102    0.000065
     22          6           0        5.687099   -1.154578   -0.414287
     23          6           0        6.831881   -1.566674    0.271150
     24          6           0        5.251323   -1.896933   -1.513908
     25          6           0        7.528311   -2.692826   -0.143324
     26          6           0        5.943392   -3.032223   -1.910440
     27          6           0        7.087522   -3.435368   -1.232277
     28          1           0        7.173684   -0.995181    1.131117
     29          1           0        4.363437   -1.577947   -2.055099
     30          1           0        8.419174   -2.999763    0.401550
     31          1           0        5.589860   -3.599797   -2.769285
     32          1           0        7.631852   -4.321852   -1.550225
     33          6           0        5.687025    1.154532    0.414292
     34          6           0        6.831191    1.567225   -0.271802
     35          6           0        5.251707    1.896381    1.514415
     36          6           0        7.527485    2.693516    0.142525
     37          6           0        5.943620    3.031828    1.910808
     38          6           0        7.087137    3.435581    1.231989
     39          1           0        7.172616    0.996083   -1.132151
     40          1           0        4.364291    1.576910    2.056093
     41          1           0        8.417875    3.000945   -0.402845
     42          1           0        5.590451    3.599029    2.770050
     43          1           0        7.631350    4.322181    1.549815
     44          7           0       -4.978266    0.000020   -0.000103
     45          6           0       -5.686990    1.154558   -0.414335
     46          6           0       -6.831289    1.566980    0.271699
     47          6           0       -5.251761    1.896543   -1.514410
     48          6           0       -7.527834    2.693112   -0.142653
     49          6           0       -5.943923    3.031822   -1.910819
     50          6           0       -7.087590    3.435293   -1.232069
     51          1           0       -7.172649    0.995729    1.132000
     52          1           0       -4.364233    1.577285   -2.056034
     53          1           0       -8.418333    3.000297    0.402674
     54          1           0       -5.590850    3.599137   -2.770027
     55          1           0       -7.631979    4.321768   -1.549941
     56          6           0       -5.687017   -1.154516    0.414141
     57          6           0       -6.831068   -1.567191   -0.272109
     58          6           0       -5.251977   -1.896199    1.514492
     59          6           0       -7.527566   -2.693348    0.142281
     60          6           0       -5.944079   -3.031486    1.910953
     61          6           0       -7.087509   -3.435246    1.231958
     62          1           0       -7.172277   -0.996155   -1.132614
     63          1           0       -4.364636   -1.576682    2.056275
     64          1           0       -8.417864   -3.000787   -0.403227
     65          1           0       -5.591165   -3.598572    2.770374
     66          1           0       -7.631874   -4.321730    1.549857
 ---------------------------------------------------------------------

 SCF Done:  E(ULC-wHPBE) =  -1496.96089979     A.U. after   22 cycles

 The electronic state is 2-A.
 Alpha  occ. eigenvalues --  -14.25207 -14.25207 -10.14512 -10.14509 -10.12826
 Alpha  occ. eigenvalues --  -10.12825 -10.12824 -10.12824 -10.11157 -10.11143
 Alpha  occ. eigenvalues --  -10.09890 -10.09890 -10.09887 -10.09886 -10.09849
 Alpha  occ. eigenvalues --  -10.09848 -10.09848 -10.09848 -10.08472 -10.08472
 Alpha  occ. eigenvalues --  -10.08471 -10.08471 -10.08310 -10.08309 -10.08309
 Alpha  occ. eigenvalues --  -10.08308 -10.07900 -10.07899 -10.07899 -10.07899
 Alpha  occ. eigenvalues --  -10.07827 -10.07826 -10.07826 -10.07826 -10.07719
 Alpha  occ. eigenvalues --  -10.07718 -10.07718 -10.07718  -1.11154  -1.11150
 Alpha  occ. eigenvalues --   -1.01216  -0.99469  -0.98524  -0.98523  -0.97241
 Alpha  occ. eigenvalues --   -0.96713  -0.92531  -0.89939  -0.89598  -0.89122
 Alpha  occ. eigenvalues --   -0.88658  -0.88324  -0.87635  -0.87299  -0.87298
 Alpha  occ. eigenvalues --   -0.87214  -0.85377  -0.83752  -0.78915  -0.78256
 Alpha  occ. eigenvalues --   -0.77125  -0.76204  -0.75756  -0.74580  -0.74259
 Alpha  occ. eigenvalues --   -0.73943  -0.73790  -0.73451  -0.71617  -0.71280
 Alpha  occ. eigenvalues --   -0.69294  -0.68538  -0.68354  -0.68113  -0.66234
 Alpha  occ. eigenvalues --   -0.63905  -0.63781  -0.63260  -0.62391  -0.62097
 Alpha  occ. eigenvalues --   -0.61936  -0.60423  -0.60291  -0.59699  -0.59590
 Alpha  occ. eigenvalues --   -0.59535  -0.58784  -0.58094  -0.57839  -0.57721
 Alpha  occ. eigenvalues --   -0.57637  -0.57563  -0.57504  -0.56453  -0.56323
 Alpha  occ. eigenvalues --   -0.56119  -0.56119  -0.55851  -0.54788  -0.54291
 Alpha  occ. eigenvalues --   -0.53451  -0.53187  -0.52849  -0.52819  -0.51436
 Alpha  occ. eigenvalues --   -0.51226  -0.50736  -0.50439  -0.50212  -0.49835
 Alpha  occ. eigenvalues --   -0.49800  -0.49073  -0.48742  -0.48379  -0.48351
 Alpha  occ. eigenvalues --   -0.47742  -0.46845  -0.44457  -0.43079  -0.43056
 Alpha  occ. eigenvalues --   -0.42045  -0.42038  -0.41722  -0.41217  -0.41197
 Alpha  occ. eigenvalues --   -0.40751  -0.40589  -0.36144  -0.34958
 Alpha virt. eigenvalues --   -0.10392  -0.08188  -0.08061  -0.07059  -0.07049
 Alpha virt. eigenvalues --   -0.06393  -0.05777  -0.05656  -0.04862  -0.04830
 Alpha virt. eigenvalues --   -0.03329  -0.02183   0.00798   0.01424   0.02465

  Beta  occ. eigenvalues --  -14.24806 -14.24806 -10.14469 -10.14466 -10.12857
  Beta  occ. eigenvalues --  -10.12856 -10.12856 -10.12855 -10.11073 -10.11059
  Beta  occ. eigenvalues --  -10.09872 -10.09871 -10.09869 -10.09868 -10.09809
  Beta  occ. eigenvalues --  -10.09809 -10.09809 -10.09809 -10.08404 -10.08403
  Beta  occ. eigenvalues --  -10.08403 -10.08403 -10.08246 -10.08245 -10.08245
  Beta  occ. eigenvalues --  -10.08245 -10.07927 -10.07926 -10.07926 -10.07926
  Beta  occ. eigenvalues --  -10.07851 -10.07851 -10.07850 -10.07850 -10.07649
  Beta  occ. eigenvalues --  -10.07648 -10.07648 -10.07648  -1.10657  -1.10652
  Beta  occ. eigenvalues --   -1.01044  -0.99312  -0.98439  -0.98438  -0.97114
  Beta  occ. eigenvalues --   -0.96568  -0.92317  -0.89864  -0.89515  -0.88975
  Beta  occ. eigenvalues --   -0.88575  -0.88245  -0.87563  -0.87234  -0.87233
  Beta  occ. eigenvalues --   -0.87125  -0.85187  -0.83450  -0.78808  -0.78115
  Beta  occ. eigenvalues --   -0.76991  -0.76084  -0.75622  -0.74432  -0.74201
  Beta  occ. eigenvalues --   -0.73858  -0.73708  -0.73377  -0.71528  -0.71197
  Beta  occ. eigenvalues --   -0.69222  -0.68444  -0.68280  -0.68035  -0.66145
  Beta  occ. eigenvalues --   -0.63748  -0.63693  -0.63169  -0.62278  -0.61916
  Beta  occ. eigenvalues --   -0.61606  -0.60348  -0.60153  -0.59620  -0.59503
  Beta  occ. eigenvalues --   -0.59494  -0.58713  -0.58050  -0.57803  -0.57626
  Beta  occ. eigenvalues --   -0.57587  -0.57493  -0.57454  -0.56386  -0.56281
  Beta  occ. eigenvalues --   -0.56086  -0.56085  -0.55755  -0.54543  -0.53942
  Beta  occ. eigenvalues --   -0.53154  -0.52949  -0.52663  -0.52634  -0.51378
  Beta  occ. eigenvalues --   -0.51099  -0.50386  -0.50353  -0.50160  -0.49736
  Beta  occ. eigenvalues --   -0.49681  -0.48868  -0.48627  -0.48333  -0.48304
  Beta  occ. eigenvalues --   -0.47454  -0.46227  -0.43705  -0.42929  -0.42919
  Beta  occ. eigenvalues --   -0.41666  -0.41659  -0.40946  -0.40938  -0.40903
  Beta  occ. eigenvalues --   -0.40588  -0.39841  -0.31881
  Beta virt. eigenvalues --   -0.23531  -0.10038  -0.07936  -0.07783  -0.06776
  Beta virt. eigenvalues --   -0.06760  -0.05952  -0.05561  -0.05378  -0.04669
  Beta virt. eigenvalues --   -0.04605  -0.02781  -0.01575   0.00836   0.01467

 Mulliken charges and spin densities:
               1          2
     1  C   -0.108663   0.028535
     2  C   -0.040431   0.042494
     3  C   -0.134132  -0.000404
     4  C   -0.108694   0.028546
     5  C    0.034966   0.057255
     6  C   -0.134123  -0.000407
     7  H    0.148633  -0.000240
     8  H    0.169712  -0.001234
     9  H    0.148633  -0.000240
    10  C    0.035058   0.057177
    11  C   -0.134153  -0.000365
    12  C   -0.134149  -0.000376
    13  C   -0.108336   0.028481
    14  C   -0.108454   0.028493
    15  C   -0.041040   0.042512
    16  H    0.148635  -0.000242
    17  H    0.148637  -0.000242
    18  H    0.169632  -0.001230
    19  H    0.169656  -0.001231
    20  H    0.169705  -0.001233
    21  N    0.040854   0.181675
    22  C   -0.063961  -0.014158
    23  C   -0.100912   0.047197
    24  C   -0.098998   0.047312
    25  C   -0.107513  -0.026093
    26  C   -0.107748  -0.027946
    27  C   -0.081901   0.060933
    28  H    0.167344  -0.001944
    29  H    0.156872  -0.002185
    30  H    0.131999   0.001238
    31  H    0.128794   0.001463
    32  H    0.132926  -0.003085
    33  C   -0.064370  -0.014145
    34  C   -0.100757   0.047149
    35  C   -0.098794   0.047266
    36  C   -0.107530  -0.026067
    37  C   -0.107750  -0.027919
    38  C   -0.081870   0.060865
    39  H    0.167317  -0.001942
    40  H    0.156814  -0.002183
    41  H    0.131999   0.001238
    42  H    0.128797   0.001462
    43  H    0.132929  -0.003081
    44  N    0.040856   0.181676
    45  C   -0.064354  -0.014148
    46  C   -0.100653   0.047147
    47  C   -0.098925   0.047258
    48  C   -0.107510  -0.026062
    49  C   -0.107752  -0.027914
    50  C   -0.081875   0.060855
    51  H    0.167272  -0.001943
    52  H    0.156861  -0.002183
    53  H    0.131998   0.001238
    54  H    0.128796   0.001462
    55  H    0.132928  -0.003081
    56  C   -0.064556  -0.014142
    57  C   -0.100586   0.047129
    58  C   -0.098813   0.047238
    59  C   -0.107523  -0.026051
    60  C   -0.107763  -0.027903
    61  C   -0.081860   0.060830
    62  H    0.167256  -0.001942
    63  H    0.156849  -0.002182
    64  H    0.131999   0.001237
    65  H    0.128797   0.001461
    66  H    0.132928  -0.003079
 Sum of Mulliken charges =   1.00000   1.00000

 Dipole moment (field-independent basis, Debye):
    X=             -0.0004    Y=              0.0003    Z=              0.0001  Tot=              0.0005
 Quadrupole moment (field-independent basis, Debye-Ang):
   XX=            -41.9822   YY=           -172.8004   ZZ=           -206.5240
   XY=              0.0062   XZ=             -0.0006   YZ=             -0.0034

 Normal termination of Gaussian 16 at Mon Jan 18 02:51:03 2021.
