 Gaussian 16, Revision A.03,
 Gaussian 16:  EM64L-G16RevA.03 25-Dec-2016

 ----------------------------------------------------------------------
 #P LC-wHPBE/TZVP iop(3/107=0177400000, 3/108=0177400000) scf=(conver=6
 ,fermi,ndamp=35,noincfock,novaracc,vshift=500,xqc)
 ----------------------------------------------------------------------

 ----------
 H28 C36 N2
 ----------
 Symbolic Z-matrix:
 Charge =  0 Multiplicity = 1

                         Standard orientation:
 ---------------------------------------------------------------------
 Center     Atomic      Atomic             Coordinates (Angstroms)
 Number     Number       Type             X           Y           Z
 ---------------------------------------------------------------------
      1          6           0       -2.849999   -1.125861   -0.415638
      2          6           0       -3.563139   -0.000026    0.000017
      3          6           0       -1.464492   -1.123667   -0.405534
      4          6           0       -2.850033    1.125752    0.415809
      5          6           0       -0.741288   -0.000047    0.000195
      6          6           0       -1.464504    1.123547    0.405879
      7          1           0       -0.931596   -2.005844   -0.756198
      8          1           0       -3.391048    2.006254    0.754990
      9          1           0       -0.931669    2.005728    0.756629
     10          6           0        0.741437   -0.000073    0.000217
     11          6           0        1.464635    1.123165   -0.406556
     12          6           0        1.464638   -1.123302    0.406976
     13          6           0        2.850149    1.125343   -0.416610
     14          6           0        2.850163   -1.125491    0.416935
     15          6           0        3.563257   -0.000095    0.000116
     16          1           0        0.931751    2.005025   -0.758038
     17          1           0        0.931783   -2.005140    0.758553
     18          1           0        3.391193    2.005527   -0.756576
     19          1           0        3.391211   -2.005669    0.756913
     20          1           0       -3.391005   -2.006357   -0.754845
     21          7           0        4.978430   -0.000102    0.000065
     22          6           0        5.687099   -1.154578   -0.414287
     23          6           0        6.831881   -1.566674    0.271150
     24          6           0        5.251323   -1.896933   -1.513908
     25          6           0        7.528311   -2.692826   -0.143324
     26          6           0        5.943392   -3.032223   -1.910440
     27          6           0        7.087522   -3.435368   -1.232277
     28          1           0        7.173684   -0.995181    1.131117
     29          1           0        4.363437   -1.577947   -2.055099
     30          1           0        8.419174   -2.999763    0.401550
     31          1           0        5.589860   -3.599797   -2.769285
     32          1           0        7.631852   -4.321852   -1.550225
     33          6           0        5.687025    1.154532    0.414292
     34          6           0        6.831191    1.567225   -0.271802
     35          6           0        5.251707    1.896381    1.514415
     36          6           0        7.527485    2.693516    0.142525
     37          6           0        5.943620    3.031828    1.910808
     38          6           0        7.087137    3.435581    1.231989
     39          1           0        7.172616    0.996083   -1.132151
     40          1           0        4.364291    1.576910    2.056093
     41          1           0        8.417875    3.000945   -0.402845
     42          1           0        5.590451    3.599029    2.770050
     43          1           0        7.631350    4.322181    1.549815
     44          7           0       -4.978266    0.000020   -0.000103
     45          6           0       -5.686990    1.154558   -0.414335
     46          6           0       -6.831289    1.566980    0.271699
     47          6           0       -5.251761    1.896543   -1.514410
     48          6           0       -7.527834    2.693112   -0.142653
     49          6           0       -5.943923    3.031822   -1.910819
     50          6           0       -7.087590    3.435293   -1.232069
     51          1           0       -7.172649    0.995729    1.132000
     52          1           0       -4.364233    1.577285   -2.056034
     53          1           0       -8.418333    3.000297    0.402674
     54          1           0       -5.590850    3.599137   -2.770027
     55          1           0       -7.631979    4.321768   -1.549941
     56          6           0       -5.687017   -1.154516    0.414141
     57          6           0       -6.831068   -1.567191   -0.272109
     58          6           0       -5.251977   -1.896199    1.514492
     59          6           0       -7.527566   -2.693348    0.142281
     60          6           0       -5.944079   -3.031486    1.910953
     61          6           0       -7.087509   -3.435246    1.231958
     62          1           0       -7.172277   -0.996155   -1.132614
     63          1           0       -4.364636   -1.576682    2.056275
     64          1           0       -8.417864   -3.000787   -0.403227
     65          1           0       -5.591165   -3.598572    2.770374
     66          1           0       -7.631874   -4.321730    1.549857
 ---------------------------------------------------------------------

 SCF Done:  E(RLC-wHPBE) =  -1497.20195172     A.U. after   14 cycles

 The electronic state is 1-A.
 Alpha  occ. eigenvalues --  -14.12036 -14.12035 -10.02908 -10.02907 -10.02907
 Alpha  occ. eigenvalues --  -10.02906 -10.02831 -10.02830  -9.99496  -9.99483
 Alpha  occ. eigenvalues --   -9.98889  -9.98888  -9.98888  -9.98886  -9.98886
 Alpha  occ. eigenvalues --   -9.98886  -9.98885  -9.98884  -9.98826  -9.98826
 Alpha  occ. eigenvalues --   -9.98824  -9.98823  -9.98632  -9.98631  -9.98631
 Alpha  occ. eigenvalues --   -9.98630  -9.98615  -9.98614  -9.98613  -9.98612
 Alpha  occ. eigenvalues --   -9.98608  -9.98608  -9.98607  -9.98605  -9.98420
 Alpha  occ. eigenvalues --   -9.98419  -9.98419  -9.98417  -0.99441  -0.99437
 Alpha  occ. eigenvalues --   -0.89996  -0.88962  -0.88960  -0.88670  -0.87484
 Alpha  occ. eigenvalues --   -0.86641  -0.81449  -0.79602  -0.79524  -0.78878
 Alpha  occ. eigenvalues --   -0.78326  -0.78220  -0.78000  -0.77980  -0.77709
 Alpha  occ. eigenvalues --   -0.77446  -0.75367  -0.73345  -0.68317  -0.67592
 Alpha  occ. eigenvalues --   -0.66998  -0.66060  -0.65549  -0.64633  -0.64601
 Alpha  occ. eigenvalues --   -0.64487  -0.63589  -0.63511  -0.61816  -0.61189
 Alpha  occ. eigenvalues --   -0.58865  -0.58686  -0.58461  -0.58222  -0.55890
 Alpha  occ. eigenvalues --   -0.54359  -0.53407  -0.53308  -0.52736  -0.52190
 Alpha  occ. eigenvalues --   -0.51472  -0.50464  -0.50199  -0.49973  -0.49496
 Alpha  occ. eigenvalues --   -0.49043  -0.49001  -0.48607  -0.48154  -0.48113
 Alpha  occ. eigenvalues --   -0.48008  -0.47349  -0.47159  -0.47093  -0.46949
 Alpha  occ. eigenvalues --   -0.46943  -0.46640  -0.45066  -0.43892  -0.43690
 Alpha  occ. eigenvalues --   -0.43397  -0.43340  -0.43285  -0.42957  -0.41628
 Alpha  occ. eigenvalues --   -0.41288  -0.40795  -0.40601  -0.40292  -0.40229
 Alpha  occ. eigenvalues --   -0.39975  -0.39378  -0.39148  -0.38966  -0.38783
 Alpha  occ. eigenvalues --   -0.37079  -0.36427  -0.33805  -0.32591  -0.32566
 Alpha  occ. eigenvalues --   -0.32531  -0.32525  -0.31668  -0.31421  -0.31365
 Alpha  occ. eigenvalues --   -0.31330  -0.30502  -0.25046  -0.23604
 Alpha virt. eigenvalues --    0.00683   0.02114   0.02169   0.02558   0.02559
 Alpha virt. eigenvalues --    0.04074   0.04375   0.04563   0.04600   0.04609
 Alpha virt. eigenvalues --    0.06779   0.08529   0.10029   0.10246   0.11019

 Mulliken charges:
               1
     1  C   -0.121079
     2  C   -0.036821
     3  C   -0.150511
     4  C   -0.121105
     5  C    0.034660
     6  C   -0.150499
     7  H    0.123144
     8  H    0.143256
     9  H    0.123141
    10  C    0.034751
    11  C   -0.150524
    12  C   -0.150516
    13  C   -0.120753
    14  C   -0.120859
    15  C   -0.037418
    16  H    0.123145
    17  H    0.123146
    18  H    0.143180
    19  H    0.143202
    20  H    0.143248
    21  N   -0.004679
    22  C   -0.053466
    23  C   -0.113452
    24  C   -0.107466
    25  C   -0.110286
    26  C   -0.110266
    27  C   -0.100689
    28  H    0.147797
    29  H    0.146098
    30  H    0.103921
    31  H    0.103884
    32  H    0.102600
    33  C   -0.053873
    34  C   -0.113277
    35  C   -0.107244
    36  C   -0.110302
    37  C   -0.110269
    38  C   -0.100644
    39  H    0.147778
    40  H    0.146038
    41  H    0.103928
    42  H    0.103891
    43  H    0.102610
    44  N   -0.004687
    45  C   -0.053850
    46  C   -0.113179
    47  C   -0.107370
    48  C   -0.110285
    49  C   -0.110270
    50  C   -0.100651
    51  H    0.147735
    52  H    0.146084
    53  H    0.103928
    54  H    0.103892
    55  H    0.102612
    56  C   -0.054049
    57  C   -0.113106
    58  C   -0.107249
    59  C   -0.110296
    60  C   -0.110283
    61  C   -0.100630
    62  H    0.147718
    63  H    0.146073
    64  H    0.103932
    65  H    0.103895
    66  H    0.102615
 Sum of Mulliken charges =  -0.00000

 Dipole moment (field-independent basis, Debye):
    X=             -0.0038    Y=              0.0007    Z=              0.0005  Tot=              0.0039
 Quadrupole moment (field-independent basis, Debye-Ang):
   XX=           -204.8196   YY=           -207.0391   ZZ=           -218.0482
   XY=              0.0143   XZ=              0.0007   YZ=             -0.0051

 1\1\GINC-CASCADEB019\SP\RLC-wHPBE\TZVP\C36H28N2\RDU230\18-Jan-2021\0\\
 #P LC-wHPBE/TZVP iop(3/107=0177400000, 3/108=0177400000) scf=(conver=6
 ,fermi,ndamp=35,noincfock,novaracc,vshift=500,xqc)\\H28 C36 N2\\0,1\C,
 0,2.849999,-1.125861,0.415638\C,0,3.563139,-0.000026,-0.000017\C,0,1.4
 64492,-1.123667,0.405534\C,0,2.850033,1.125752,-0.415809\C,0,0.741288,
 -0.000047,-0.000195\C,0,1.464504,1.123547,-0.405879\H,0,0.931596,-2.00
 5844,0.756198\H,0,3.391048,2.006254,-0.75499\H,0,0.931669,2.005728,-0.
 756629\C,0,-0.741437,-0.000073,-0.000217\C,0,-1.464635,1.123165,0.4065

 Normal termination of Gaussian 16 at Mon Jan 18 06:07:31 2021.
