 Gaussian 16, Revision A.03,
 Gaussian 16:  EM64L-G16RevA.03 25-Dec-2016

 ------------------------------------------------------------
 #P LC-wHPBE/TZVP iop(3/107=0245200000, 3/108=0245200000) opt
 ------------------------------------------------------------

 ----------
 H15 C18 N1
 ----------
 Symbolic Z-matrix:
 Charge =  0 Multiplicity = 1

 SCF Done:  E(RLC-wHPBE) =  -749.196244749     A.U. after   20 cycles
 SCF Done:  E(RLC-wHPBE) =  -749.240406640     A.U. after   18 cycles
 SCF Done:  E(RLC-wHPBE) =  -749.258584670     A.U. after   19 cycles
 SCF Done:  E(RLC-wHPBE) =  -749.260760119     A.U. after   17 cycles
 SCF Done:  E(RLC-wHPBE) =  -749.261367272     A.U. after   24 cycles
 SCF Done:  E(RLC-wHPBE) =  -749.261697874     A.U. after   17 cycles
 SCF Done:  E(RLC-wHPBE) =  -749.261930102     A.U. after   18 cycles
 SCF Done:  E(RLC-wHPBE) =  -749.261959143     A.U. after   19 cycles
 SCF Done:  E(RLC-wHPBE) =  -749.261960986     A.U. after    9 cycles
 SCF Done:  E(RLC-wHPBE) =  -749.261961366     A.U. after   10 cycles
 SCF Done:  E(RLC-wHPBE) =  -749.261960751     A.U. after    8 cycles
 SCF Done:  E(RLC-wHPBE) =  -749.246972690     A.U. after   20 cycles
 SCF Done:  E(RLC-wHPBE) =  -749.257120664     A.U. after   16 cycles
 SCF Done:  E(RLC-wHPBE) =  -749.261379899     A.U. after   17 cycles
 SCF Done:  E(RLC-wHPBE) =  -749.261632676     A.U. after   21 cycles
 SCF Done:  E(RLC-wHPBE) =  -749.259438877     A.U. after   21 cycles
 SCF Done:  E(RLC-wHPBE) =  -749.261657081     A.U. after   27 cycles
 SCF Done:  E(RLC-wHPBE) =  -749.261963129     A.U. after   19 cycles
 SCF Done:  E(RLC-wHPBE) =  -749.259967177     A.U. after   26 cycles
 SCF Done:  E(RLC-wHPBE) =  -749.261959698     A.U. after   13 cycles
 Optimization completed.
    -- Stationary point found.

                         Standard orientation:
 ---------------------------------------------------------------------
 Center     Atomic      Atomic             Coordinates (Angstroms)
 Number     Number       Type             X           Y           Z
 ---------------------------------------------------------------------
      1          7           0        0.000022   -0.000126   -0.001279
      2          6           0        0.411521   -1.356839   -0.000484
      3          6           0        1.495533   -1.769287    0.781179
      4          6           0       -0.260320   -2.302689   -0.781717
      5          6           0        1.901218   -3.097977    0.771590
      6          6           0        0.140608   -3.632811   -0.770872
      7          6           0        1.225282   -4.038950    0.000666
      8          1           0        2.020108   -1.039002    1.394849
      9          1           0       -1.101816   -1.987296   -1.396157
     10          1           0        2.748094   -3.402056    1.385878
     11          1           0       -0.394485   -4.356690   -1.384611
     12          1           0        1.541424   -5.080840    0.001027
     13          6           0        0.969124    1.034710   -0.000488
     14          6           0        2.123037    0.926935   -0.783450
     15          6           0        0.785335    2.178692    0.782922
     16          6           0        3.074444    1.939229   -0.772694
     17          6           0        1.733248    3.194302    0.773528
     18          6           0        2.885092    3.080453    0.000886
     19          1           0        2.269922    0.041314   -1.399284
     20          1           0       -0.108570    2.266902    1.398014
     21          1           0        3.967862    1.838651   -1.388087
     22          1           0        1.574087    4.078874    1.389358
     23          1           0        3.629424    3.875076    0.001646
     24          6           0       -1.380731    0.321945   -0.000436
     25          6           0       -2.279686   -0.409002    0.782988
     26          6           0       -1.864017    1.375244   -0.783483
     27          6           0       -3.633185   -0.095800    0.773256
     28          6           0       -3.216365    1.693293   -0.772877
     29          6           0       -4.110212    0.958658    0.000466
     30          1           0       -1.909274   -1.227214    1.398174
     31          1           0       -1.170181    1.945112   -1.399095
     32          1           0       -4.319851   -0.675761    1.389003
     33          1           0       -3.575887    2.517271   -1.388348
     34          1           0       -5.170565    1.205911    0.000686
 ---------------------------------------------------------------------

 The electronic state is 1-A.
 Alpha  occ. eigenvalues --  -14.15533 -10.06810 -10.06810 -10.06807 -10.02737
 Alpha  occ. eigenvalues --  -10.02737 -10.02737 -10.02736 -10.02734 -10.02734
 Alpha  occ. eigenvalues --  -10.02429 -10.02428 -10.02428 -10.02427 -10.02425
 Alpha  occ. eigenvalues --  -10.02423 -10.02255 -10.02254 -10.02250  -1.03240
 Alpha  occ. eigenvalues --   -0.92861  -0.92859  -0.90834  -0.83269  -0.83268
 Alpha  occ. eigenvalues --   -0.81752  -0.81625  -0.81624  -0.78037  -0.70490
 Alpha  occ. eigenvalues --   -0.70488  -0.68134  -0.67546  -0.67544  -0.64790
 Alpha  occ. eigenvalues --   -0.61644  -0.61644  -0.58258  -0.55757  -0.55754
 Alpha  occ. eigenvalues --   -0.54607  -0.52794  -0.52794  -0.51647  -0.50767
 Alpha  occ. eigenvalues --   -0.50765  -0.50020  -0.49697  -0.49696  -0.46461
 Alpha  occ. eigenvalues --   -0.46194  -0.46192  -0.44429  -0.43161  -0.43158
 Alpha  occ. eigenvalues --   -0.42724  -0.41517  -0.41515  -0.39195  -0.34482
 Alpha  occ. eigenvalues --   -0.34479  -0.34443  -0.33194  -0.33193  -0.26052
 Alpha virt. eigenvalues --    0.03637   0.03992   0.03993   0.06168   0.06171
 Alpha virt. eigenvalues --    0.08947   0.11615   0.12563   0.12564   0.14932
 Alpha virt. eigenvalues --    0.14933   0.15041   0.15457   0.16652   0.16653

 Mulliken charges:
               1
     1  N   -0.027056
     2  C   -0.059033
     3  C   -0.117976
     4  C   -0.118101
     5  C   -0.117939
     6  C   -0.117846
     7  C   -0.111144
     8  H    0.158452
     9  H    0.158364
    10  H    0.111822
    11  H    0.111827
    12  H    0.110720
    13  C   -0.060157
    14  C   -0.117735
    15  C   -0.117305
    16  C   -0.117868
    17  C   -0.117973
    18  C   -0.111031
    19  H    0.158290
    20  H    0.158290
    21  H    0.111832
    22  H    0.111833
    23  H    0.110748
    24  C   -0.060144
    25  C   -0.117548
    26  C   -0.117445
    27  C   -0.117982
    28  C   -0.117899
    29  C   -0.111012
    30  H    0.158358
    31  H    0.158229
    32  H    0.111842
    33  H    0.111843
    34  H    0.110745
 Sum of Mulliken charges =  -0.00000

 Dipole moment (field-independent basis, Debye):
    X=             -0.0011    Y=              0.0028    Z=              0.0006  Tot=              0.0031
 Quadrupole moment (field-independent basis, Debye-Ang):
   XX=           -103.1561   YY=           -103.1803   ZZ=           -111.0292
   XY=              0.0068   XZ=             -0.0020   YZ=             -0.0004

 Normal termination of Gaussian 16 at Sun Jan 17 19:39:45 2021.
