 Gaussian 16, Revision A.03,
 Gaussian 16:  EM64L-G16RevA.03 25-Dec-2016

 ----------------------------------------------------------------------
 #P LC-wHPBE/TZVP iop(3/107=0168400000, 3/108=0168400000) scf=(conver=6
 ,fermi,ndamp=35,noincfock,novaracc,vshift=500,xqc)
 ----------------------------------------------------------------------

 ----------------
 H28 C36 S2 N2 O4
 ----------------
 Symbolic Z-matrix:
 Charge =  0 Multiplicity = 1

                         Standard orientation:
 ---------------------------------------------------------------------
 Center     Atomic      Atomic             Coordinates (Angstroms)
 Number     Number       Type             X           Y           Z
 ---------------------------------------------------------------------
      1          6           0       -1.748928    0.489907   -0.452051
      2          6           0       -0.626174    1.279763   -0.152570
      3         16           0        1.952753    5.388628   -0.812439
      4          6           0       -0.882312    2.170069    0.820725
      5          6           0        1.932708    2.897266    0.476539
      6          6           0        2.566514    3.761438   -0.418550
      7          6           0       -2.975354    0.631957    0.195801
      8          6           0       -2.049066    2.386893    1.545961
      9          1           0        0.246316    4.468801    0.586079
     10          6           0        2.384401    1.613824    0.700024
     11          6           0        3.673888    3.269502   -1.095477
     12          6           0        4.135912    1.984797   -0.893895
     13          6           0        3.494497    1.125461    0.002977
     14          1           0        1.857267    0.971131    1.395345
     15          1           0        4.176334    3.912174   -1.811785
     16          1           0        4.992977    1.632150   -1.456718
     17          6           0       -3.122467    1.590215    1.210611
     18          1           0       -1.688273   -0.276733   -1.226088
     19          1           0        2.539000    6.051116    0.206249
     20          1           0       -2.132551    3.120151    2.347153
     21          1           0       -4.068236    1.688167    1.734116
     22         16           0        0.491419    3.391365    1.378930
     23          7           0        3.940024   -0.175839    0.195205
     24          6           0        5.265040   -0.539150   -0.184549
     25          6           0        5.479402   -1.520085   -1.147894
     26          6           0        6.360048    0.068673    0.412912
     27          6           0        6.761446   -1.889048   -1.505778
     28          6           0        7.649207   -0.280692    0.044528
     29          6           0        7.852726   -1.265560   -0.913210
     30          1           0        4.624132   -2.002234   -1.612555
     31          1           0        6.198832    0.830082    1.170918
     32          1           0        6.936355   -2.656092   -2.253454
     33          1           0        8.499101    0.206598    0.518215
     34          6           0        3.067884   -1.217797    0.624973
     35          6           0        3.533169   -2.175669    1.516644
     36          6           0        1.768428   -1.324352    0.133595
     37          6           0        2.723890   -3.230889    1.904642
     38          6           0        0.952027   -2.363639    0.537000
     39          6           0        1.429133   -3.326131    1.415171
     40          1           0        4.545758   -2.102962    1.902377
     41          1           0        1.364259   -0.566763   -0.534909
     42          1           0        3.106488   -3.978127    2.597301
     43          1           0       -0.063643   -2.437107    0.162477
     44          7           0       -4.071583   -0.199288   -0.137893
     45          6           0       -5.379657    0.330758   -0.192504
     46          6           0       -6.464072   -0.381862    0.308117
     47          6           0       -5.615898    1.583782   -0.758482
     48          6           0       -7.748035    0.135409    0.237366
     49          6           0       -6.890741    2.113870   -0.808775
     50          6           0       -7.966332    1.388715   -0.314728
     51          1           0       -6.301182   -1.359246    0.752201
     52          1           0       -4.779992    2.148147   -1.160920
     53          1           0       -8.582756   -0.442294    0.630527
     54          1           0       -7.071352    3.090185   -1.247847
     55          6           0       -3.863071   -1.579858   -0.373004
     56          6           0       -4.488297   -2.228332   -1.435995
     57          6           0       -3.028002   -2.320518    0.455690
     58          6           0       -4.288516   -3.577498   -1.662294
     59          6           0       -2.802155   -3.666597    0.218956
     60          6           0       -3.435225   -4.300687   -0.840523
     61          1           0       -5.141183   -1.661753   -2.093518
     62          1           0       -2.533592   -1.828985    1.288374
     63          1           0       -4.774148   -4.081779   -2.492022
     64          1           0       -2.125658   -4.220184    0.867724
     65          8           0        0.584592   -4.343911    1.769173
     66          1           0        1.030590   -4.920168    2.399784
     67          8           0        9.095256   -1.661445   -1.308356
     68          1           0        9.763222   -1.159512   -0.827959
     69          8           0       -9.209724    1.953542   -0.400297
     70          1           0       -9.859516    1.347058   -0.028653
     71          8           0       -3.254007   -5.627948   -1.116747
     72          1           0       -2.609433   -5.991357   -0.499352
 ---------------------------------------------------------------------

 SCF Done:  E(RLC-wHPBE) =  -2593.93589964     A.U. after   21 cycles

 The electronic state is 1-A.
 Alpha  occ. eigenvalues --  -88.25762 -88.20656 -18.88821 -18.88033 -18.86629
 Alpha  occ. eigenvalues --  -18.86401 -14.12294 -14.09230 -10.05305 -10.04186
 Alpha  occ. eigenvalues --  -10.04026 -10.04001 -10.03104 -10.02723 -10.02548
 Alpha  occ. eigenvalues --  -10.02477 -10.01779 -10.00329 -10.00113 -10.00002
 Alpha  occ. eigenvalues --   -9.99830  -9.99731  -9.99696  -9.99688  -9.99403
 Alpha  occ. eigenvalues --   -9.99106  -9.98983  -9.98964  -9.98633  -9.98593
 Alpha  occ. eigenvalues --   -9.97695  -9.97567  -9.97472  -9.97398  -9.97109
 Alpha  occ. eigenvalues --   -9.96990  -9.96922  -9.96863  -9.96850  -9.96768
 Alpha  occ. eigenvalues --   -9.96616  -9.96074  -9.94910  -9.91204  -7.84848
 Alpha  occ. eigenvalues --   -7.79885  -5.86848  -5.86630  -5.86108  -5.82088
 Alpha  occ. eigenvalues --   -5.81659  -5.80897  -1.08686  -1.07670  -1.06344
 Alpha  occ. eigenvalues --   -1.06136  -0.99786  -0.96835  -0.92306  -0.89284
 Alpha  occ. eigenvalues --   -0.88092  -0.87169  -0.87102  -0.85965  -0.84120
 Alpha  occ. eigenvalues --   -0.83133  -0.79649  -0.79188  -0.78232  -0.78017
 Alpha  occ. eigenvalues --   -0.77341  -0.77254  -0.77118  -0.76537  -0.75554
 Alpha  occ. eigenvalues --   -0.74297  -0.73474  -0.71595  -0.68513  -0.67660
 Alpha  occ. eigenvalues --   -0.66879  -0.66246  -0.66029  -0.65590  -0.64442
 Alpha  occ. eigenvalues --   -0.64020  -0.63102  -0.62526  -0.61810  -0.60466
 Alpha  occ. eigenvalues --   -0.59794  -0.59200  -0.59062  -0.58142  -0.57817
 Alpha  occ. eigenvalues --   -0.57653  -0.55781  -0.54908  -0.54569  -0.53991
 Alpha  occ. eigenvalues --   -0.53489  -0.52195  -0.51616  -0.50933  -0.50314
 Alpha  occ. eigenvalues --   -0.50027  -0.49619  -0.49316  -0.48875  -0.48291
 Alpha  occ. eigenvalues --   -0.48189  -0.47847  -0.47602  -0.47390  -0.47221
 Alpha  occ. eigenvalues --   -0.46899  -0.46667  -0.46258  -0.46205  -0.45831
 Alpha  occ. eigenvalues --   -0.45620  -0.45272  -0.45031  -0.44973  -0.44635
 Alpha  occ. eigenvalues --   -0.44456  -0.43883  -0.43668  -0.43138  -0.42523
 Alpha  occ. eigenvalues --   -0.41666  -0.41452  -0.41245  -0.40976  -0.40677
 Alpha  occ. eigenvalues --   -0.40567  -0.40197  -0.40122  -0.39776  -0.39127
 Alpha  occ. eigenvalues --   -0.38738  -0.38456  -0.37780  -0.37435  -0.37101
 Alpha  occ. eigenvalues --   -0.36005  -0.33672  -0.33114  -0.32585  -0.32067
 Alpha  occ. eigenvalues --   -0.31696  -0.30908  -0.30609  -0.30283  -0.29722
 Alpha  occ. eigenvalues --   -0.28814  -0.28299  -0.27548  -0.24431  -0.21907
 Alpha  occ. eigenvalues --   -0.20843
 Alpha virt. eigenvalues --    0.00009   0.00912   0.02407   0.02615   0.03026
 Alpha virt. eigenvalues --    0.03341   0.03617   0.04957   0.05053   0.05326
 Alpha virt. eigenvalues --    0.05875   0.06127   0.06741   0.07071   0.07183

 Mulliken charges:
               1
     1  C   -0.305208
     2  C   -0.076003
     3  S   -0.083027
     4  C   -0.272777
     5  C    0.113137
     6  C   -0.280107
     7  C    0.016526
     8  C   -0.061352
     9  H    0.138132
    10  C   -0.144045
    11  C   -0.045523
    12  C   -0.094187
    13  C    0.020144
    14  H    0.230991
    15  H    0.118962
    16  H    0.156138
    17  C   -0.175594
    18  H    0.130259
    19  H    0.114037
    20  H    0.112607
    21  H    0.138831
    22  S    0.194865
    23  N    0.035989
    24  C   -0.294167
    25  C    0.041971
    26  C   -0.022595
    27  C   -0.218143
    28  C   -0.178610
    29  C    0.138811
    30  H    0.126565
    31  H    0.124542
    32  H    0.119861
    33  H    0.107600
    34  C   -0.090910
    35  C   -0.099704
    36  C   -0.103302
    37  C   -0.145461
    38  C   -0.186839
    39  C    0.090889
    40  H    0.118196
    41  H    0.178983
    42  H    0.100349
    43  H    0.162330
    44  N    0.010694
    45  C   -0.080960
    46  C   -0.101507
    47  C   -0.083433
    48  C   -0.170657
    49  C   -0.199192
    50  C    0.114380
    51  H    0.139375
    52  H    0.141018
    53  H    0.100492
    54  H    0.110126
    55  C   -0.101399
    56  C   -0.067051
    57  C   -0.134063
    58  C   -0.202413
    59  C   -0.139145
    60  C    0.103627
    61  H    0.130303
    62  H    0.145381
    63  H    0.108326
    64  H    0.123869
    65  O   -0.244449
    66  H    0.267417
    67  O   -0.235142
    68  H    0.269912
    69  O   -0.245541
    70  H    0.265603
    71  O   -0.245742
    72  H    0.267002
 Sum of Mulliken charges =  -0.00000

 Dipole moment (field-independent basis, Debye):
    X=              6.6500    Y=              0.7923    Z=              4.9335  Tot=              8.3180
 Quadrupole moment (field-independent basis, Debye-Ang):
   XX=           -225.0817   YY=           -245.0052   ZZ=           -267.4701
   XY=             10.6500   XZ=              1.1467   YZ=             -6.0797

 Normal termination of Gaussian 16 at Fri Jan 22 06:00:00 2021.
