 Gaussian 16, Revision A.03,
 Gaussian 16:  EM64L-G16RevA.03 25-Dec-2016

 ----------------------------------------------------------------------
 #P LC-wHPBE/TZVP iop(3/107=0170900000, 3/108=0170900000) scf=(conver=6
 ,fermi,ndamp=35,noincfock,novaracc,vshift=500,xqc)
 ----------------------------------------------------------------------

 ----------------
 H28 C36 S2 N2 O4
 ----------------
 Symbolic Z-matrix:
 Charge =  1 Multiplicity = 2

                         Standard orientation:
 ---------------------------------------------------------------------
 Center     Atomic      Atomic             Coordinates (Angstroms)
 Number     Number       Type             X           Y           Z
 ---------------------------------------------------------------------
      1          6           0       -1.748928    0.489907   -0.452051
      2          6           0       -0.626174    1.279763   -0.152570
      3         16           0        1.952753    5.388628   -0.812439
      4          6           0       -0.882312    2.170069    0.820725
      5          6           0        1.932708    2.897266    0.476539
      6          6           0        2.566514    3.761438   -0.418550
      7          6           0       -2.975354    0.631957    0.195801
      8          6           0       -2.049066    2.386893    1.545961
      9          1           0        0.246316    4.468801    0.586079
     10          6           0        2.384401    1.613824    0.700024
     11          6           0        3.673888    3.269502   -1.095477
     12          6           0        4.135912    1.984797   -0.893895
     13          6           0        3.494497    1.125461    0.002977
     14          1           0        1.857267    0.971131    1.395345
     15          1           0        4.176334    3.912174   -1.811785
     16          1           0        4.992977    1.632150   -1.456718
     17          6           0       -3.122467    1.590215    1.210611
     18          1           0       -1.688273   -0.276733   -1.226088
     19          1           0        2.539000    6.051116    0.206249
     20          1           0       -2.132551    3.120151    2.347153
     21          1           0       -4.068236    1.688167    1.734116
     22         16           0        0.491419    3.391365    1.378930
     23          7           0        3.940024   -0.175839    0.195205
     24          6           0        5.265040   -0.539150   -0.184549
     25          6           0        5.479402   -1.520085   -1.147894
     26          6           0        6.360048    0.068673    0.412912
     27          6           0        6.761446   -1.889048   -1.505778
     28          6           0        7.649207   -0.280692    0.044528
     29          6           0        7.852726   -1.265560   -0.913210
     30          1           0        4.624132   -2.002234   -1.612555
     31          1           0        6.198832    0.830082    1.170918
     32          1           0        6.936355   -2.656092   -2.253454
     33          1           0        8.499101    0.206598    0.518215
     34          6           0        3.067884   -1.217797    0.624973
     35          6           0        3.533169   -2.175669    1.516644
     36          6           0        1.768428   -1.324352    0.133595
     37          6           0        2.723890   -3.230889    1.904642
     38          6           0        0.952027   -2.363639    0.537000
     39          6           0        1.429133   -3.326131    1.415171
     40          1           0        4.545758   -2.102962    1.902377
     41          1           0        1.364259   -0.566763   -0.534909
     42          1           0        3.106488   -3.978127    2.597301
     43          1           0       -0.063643   -2.437107    0.162477
     44          7           0       -4.071583   -0.199288   -0.137893
     45          6           0       -5.379657    0.330758   -0.192504
     46          6           0       -6.464072   -0.381862    0.308117
     47          6           0       -5.615898    1.583782   -0.758482
     48          6           0       -7.748035    0.135409    0.237366
     49          6           0       -6.890741    2.113870   -0.808775
     50          6           0       -7.966332    1.388715   -0.314728
     51          1           0       -6.301182   -1.359246    0.752201
     52          1           0       -4.779992    2.148147   -1.160920
     53          1           0       -8.582756   -0.442294    0.630527
     54          1           0       -7.071352    3.090185   -1.247847
     55          6           0       -3.863071   -1.579858   -0.373004
     56          6           0       -4.488297   -2.228332   -1.435995
     57          6           0       -3.028002   -2.320518    0.455690
     58          6           0       -4.288516   -3.577498   -1.662294
     59          6           0       -2.802155   -3.666597    0.218956
     60          6           0       -3.435225   -4.300687   -0.840523
     61          1           0       -5.141183   -1.661753   -2.093518
     62          1           0       -2.533592   -1.828985    1.288374
     63          1           0       -4.774148   -4.081779   -2.492022
     64          1           0       -2.125658   -4.220184    0.867724
     65          8           0        0.584592   -4.343911    1.769173
     66          1           0        1.030590   -4.920168    2.399784
     67          8           0        9.095256   -1.661445   -1.308356
     68          1           0        9.763222   -1.159512   -0.827959
     69          8           0       -9.209724    1.953542   -0.400297
     70          1           0       -9.859516    1.347058   -0.028653
     71          8           0       -3.254007   -5.627948   -1.116747
     72          1           0       -2.609433   -5.991357   -0.499352
 ---------------------------------------------------------------------

 SCF Done:  E(ULC-wHPBE) =  -2593.73306159     A.U. after   33 cycles
 SCF Done:  E(ULC-wHPBE) =  -2593.73324087     a.u. after    2 cycles

 The electronic state is 2-A.
 Alpha  occ. eigenvalues --  -88.38254 -88.29860 -18.96821 -18.96421 -18.96310
 Alpha  occ. eigenvalues --  -18.95012 -14.24708 -14.21023 -10.14522 -10.14291
 Alpha  occ. eigenvalues --  -10.14217 -10.14012 -10.13593 -10.13400 -10.12702
 Alpha  occ. eigenvalues --  -10.12627 -10.12204 -10.12033 -10.11992 -10.11153
 Alpha  occ. eigenvalues --  -10.10469 -10.10018 -10.09960 -10.09739 -10.09738
 Alpha  occ. eigenvalues --  -10.09361 -10.09280 -10.08808 -10.08585 -10.08480
 Alpha  occ. eigenvalues --  -10.08335 -10.08317 -10.08023 -10.07880 -10.07573
 Alpha  occ. eigenvalues --  -10.07309 -10.07012 -10.06960 -10.06925 -10.06806
 Alpha  occ. eigenvalues --  -10.06510 -10.06506 -10.06408 -10.05727  -7.97273
 Alpha  occ. eigenvalues --   -7.89068  -5.99219  -5.99115  -5.98536  -5.91264
 Alpha  occ. eigenvalues --   -5.90828  -5.90099  -1.16489  -1.16089  -1.15942
 Alpha  occ. eigenvalues --   -1.14884  -1.10811  -1.08415  -1.03180  -1.00516
 Alpha  occ. eigenvalues --   -0.98580  -0.97559  -0.96978  -0.96483  -0.95424
 Alpha  occ. eigenvalues --   -0.92406  -0.90273  -0.89639  -0.88456  -0.88148
 Alpha  occ. eigenvalues --   -0.87697  -0.87532  -0.87054  -0.86571  -0.86083
 Alpha  occ. eigenvalues --   -0.85808  -0.83918  -0.82019  -0.78020  -0.77755
 Alpha  occ. eigenvalues --   -0.76672  -0.76443  -0.76093  -0.75199  -0.74950
 Alpha  occ. eigenvalues --   -0.74455  -0.74149  -0.73008  -0.71682  -0.71139
 Alpha  occ. eigenvalues --   -0.69032  -0.68799  -0.68461  -0.68160  -0.67832
 Alpha  occ. eigenvalues --   -0.67388  -0.67016  -0.66347  -0.65037  -0.63512
 Alpha  occ. eigenvalues --   -0.63249  -0.62647  -0.61837  -0.61576  -0.61000
 Alpha  occ. eigenvalues --   -0.59949  -0.59892  -0.59631  -0.59025  -0.58496
 Alpha  occ. eigenvalues --   -0.58400  -0.57843  -0.56999  -0.56809  -0.56681
 Alpha  occ. eigenvalues --   -0.56576  -0.56395  -0.56019  -0.55849  -0.55562
 Alpha  occ. eigenvalues --   -0.55370  -0.55074  -0.54967  -0.54907  -0.54662
 Alpha  occ. eigenvalues --   -0.54427  -0.54125  -0.53807  -0.53295  -0.52773
 Alpha  occ. eigenvalues --   -0.52233  -0.51845  -0.51380  -0.51113  -0.50860
 Alpha  occ. eigenvalues --   -0.50382  -0.50090  -0.49686  -0.49562  -0.48746
 Alpha  occ. eigenvalues --   -0.48313  -0.47961  -0.47740  -0.47417  -0.46589
 Alpha  occ. eigenvalues --   -0.46439  -0.45082  -0.43086  -0.42595  -0.42184
 Alpha  occ. eigenvalues --   -0.41669  -0.41300  -0.40833  -0.40431  -0.39982
 Alpha  occ. eigenvalues --   -0.39467  -0.38956  -0.38427  -0.37052  -0.34188
 Alpha  occ. eigenvalues --   -0.32707
 Alpha virt. eigenvalues --   -0.10267  -0.09407  -0.08775  -0.07650  -0.06452
 Alpha virt. eigenvalues --   -0.06195  -0.06099  -0.05790  -0.05414  -0.04833
 Alpha virt. eigenvalues --   -0.04222  -0.04111  -0.02572  -0.02481  -0.01784

  Beta  occ. eigenvalues --  -88.38245 -88.29859 -18.96767 -18.96384 -18.96309
  Beta  occ. eigenvalues --  -18.95011 -14.24302 -14.21011 -10.14517 -10.14249
  Beta  occ. eigenvalues --  -10.14141 -10.13935 -10.13539 -10.13395 -10.12703
  Beta  occ. eigenvalues --  -10.12624 -10.12218 -10.12033 -10.12009 -10.11132
  Beta  occ. eigenvalues --  -10.10472 -10.09933 -10.09930 -10.09739 -10.09737
  Beta  occ. eigenvalues --  -10.09276 -10.08739 -10.08665 -10.08520 -10.08421
  Beta  occ. eigenvalues --  -10.08318 -10.08286 -10.08042 -10.07894 -10.07592
  Beta  occ. eigenvalues --  -10.07326 -10.07009 -10.06955 -10.06926 -10.06805
  Beta  occ. eigenvalues --  -10.06509 -10.06506 -10.06408 -10.05727  -7.97263
  Beta  occ. eigenvalues --   -7.89067  -5.99209  -5.99098  -5.98528  -5.91263
  Beta  occ. eigenvalues --   -5.90827  -5.90095  -1.16389  -1.16021  -1.15939
  Beta  occ. eigenvalues --   -1.14883  -1.10306  -1.08400  -1.03092  -1.00284
  Beta  occ. eigenvalues --   -0.98481  -0.97482  -0.96961  -0.96381  -0.95393
  Beta  occ. eigenvalues --   -0.92397  -0.90122  -0.89316  -0.88274  -0.88092
  Beta  occ. eigenvalues --   -0.87597  -0.87464  -0.87038  -0.86553  -0.86075
  Beta  occ. eigenvalues --   -0.85793  -0.83669  -0.82005  -0.77864  -0.77598
  Beta  occ. eigenvalues --   -0.76625  -0.76312  -0.75970  -0.75100  -0.74913
  Beta  occ. eigenvalues --   -0.74345  -0.74123  -0.72997  -0.71574  -0.71049
  Beta  occ. eigenvalues --   -0.68900  -0.68739  -0.68445  -0.67956  -0.67816
  Beta  occ. eigenvalues --   -0.67279  -0.67008  -0.66283  -0.64944  -0.63298
  Beta  occ. eigenvalues --   -0.63158  -0.62567  -0.61672  -0.61532  -0.60876
  Beta  occ. eigenvalues --   -0.59909  -0.59853  -0.59492  -0.58978  -0.58434
  Beta  occ. eigenvalues --   -0.58345  -0.57785  -0.56966  -0.56794  -0.56657
  Beta  occ. eigenvalues --   -0.56498  -0.56311  -0.55890  -0.55783  -0.55361
  Beta  occ. eigenvalues --   -0.55279  -0.55067  -0.54868  -0.54701  -0.54639
  Beta  occ. eigenvalues --   -0.54220  -0.54022  -0.53777  -0.53210  -0.52649
  Beta  occ. eigenvalues --   -0.52040  -0.51797  -0.51317  -0.50973  -0.50777
  Beta  occ. eigenvalues --   -0.50166  -0.50047  -0.49666  -0.49274  -0.48728
  Beta  occ. eigenvalues --   -0.48237  -0.47918  -0.47732  -0.47381  -0.46587
  Beta  occ. eigenvalues --   -0.45827  -0.45021  -0.42781  -0.42409  -0.41801
  Beta  occ. eigenvalues --   -0.41480  -0.41146  -0.40496  -0.40339  -0.39868
  Beta  occ. eigenvalues --   -0.39073  -0.37982  -0.37050  -0.33212  -0.32438
  Beta virt. eigenvalues --   -0.20795  -0.10036  -0.09203  -0.08468  -0.07485
  Beta virt. eigenvalues --   -0.06302  -0.05917  -0.05792  -0.05612  -0.05185
  Beta virt. eigenvalues --   -0.04776  -0.04176  -0.04092  -0.02499  -0.02159

 Mulliken charges and spin densities:
               1          2
     1  C   -0.230118   0.056397
     2  C    0.092113   0.452599
     3  S   -0.047061   0.002429
     4  C   -0.301755   0.006045
     5  C    0.072485  -0.018873
     6  C   -0.289373  -0.001324
     7  C   -0.014048   0.022029
     8  C   -0.044487   0.007555
     9  H    0.148070   0.001818
    10  C   -0.179313   0.019043
    11  C   -0.032909   0.003463
    12  C   -0.079905  -0.000615
    13  C    0.027757   0.000466
    14  H    0.237075  -0.000055
    15  H    0.146412  -0.000184
    16  H    0.177414   0.000082
    17  C   -0.142967   0.012226
    18  H    0.182012   0.015055
    19  H    0.132352  -0.000059
    20  H    0.165711   0.008912
    21  H    0.176794  -0.000306
    22  S    0.262568   0.013308
    23  N    0.032727   0.005315
    24  C   -0.288273  -0.000145
    25  C    0.037948   0.000553
    26  C   -0.026748   0.000618
    27  C   -0.216310  -0.000234
    28  C   -0.173994  -0.000357
    29  C    0.137933   0.000542
    30  H    0.126065  -0.000031
    31  H    0.128320  -0.000030
    32  H    0.133768   0.000024
    33  H    0.122395   0.000017
    34  C   -0.086185  -0.000428
    35  C   -0.091184   0.002466
    36  C   -0.131357   0.000200
    37  C   -0.136939  -0.001341
    38  C   -0.176583   0.000406
    39  C    0.092086   0.001925
    40  H    0.137095   0.000011
    41  H    0.174486   0.000221
    42  H    0.121979   0.000052
    43  H    0.147414   0.000476
    44  N    0.057692   0.190081
    45  C   -0.088067  -0.007443
    46  C   -0.090974   0.037826
    47  C   -0.077537   0.032487
    48  C   -0.157076  -0.015282
    49  C   -0.191637  -0.016690
    50  C    0.119277   0.038931
    51  H    0.160450  -0.001732
    52  H    0.152456  -0.001218
    53  H    0.132664   0.001043
    54  H    0.141591   0.000779
    55  C   -0.126119  -0.007024
    56  C   -0.051784   0.045497
    57  C   -0.129978   0.049608
    58  C   -0.191998  -0.019678
    59  C   -0.123321  -0.022161
    60  C    0.112849   0.055996
    61  H    0.156568  -0.002097
    62  H    0.158901  -0.002362
    63  H    0.144482   0.000989
    64  H    0.150011   0.000932
    65  O   -0.248521   0.000541
    66  H    0.279393  -0.000001
    67  O   -0.222509   0.000151
    68  H    0.276424  -0.000004
    69  O   -0.215552   0.012624
    70  H    0.279812  -0.000300
    71  O   -0.211568   0.018709
    72  H    0.280602  -0.000470
 Sum of Mulliken charges =   1.00000   1.00000

 Dipole moment (field-independent basis, Debye):
    X=             -1.4955    Y=              2.5975    Z=              4.8064  Tot=              5.6644
 Quadrupole moment (field-independent basis, Debye-Ang):
   XX=           -120.1033   YY=           -198.9873   ZZ=           -255.3054
   XY=             14.2775   XZ=              2.7148   YZ=             -2.7642

 Normal termination of Gaussian 16 at Thu Jan 21 19:21:47 2021.
