 Gaussian 16, Revision A.03,
 Gaussian 16:  EM64L-G16RevA.03 25-Dec-2016

 ----------------------------------------------------------------------
 #P LC-wHPBE/TZVP iop(3/107=0163200000, 3/108=0163200000) scf=(conver=6
 ,fermi,ndamp=35,noincfock,novaracc,vshift=500,xqc)
 ----------------------------------------------------------------------

 ----------------
 H28 C36 S2 N2 O4
 ----------------
 Symbolic Z-matrix:
 Charge =  1 Multiplicity = 2

                         Standard orientation:
 ---------------------------------------------------------------------
 Center     Atomic      Atomic             Coordinates (Angstroms)
 Number     Number       Type             X           Y           Z
 ---------------------------------------------------------------------
      1          6           0       -1.748928    0.489907   -0.452051
      2          6           0       -0.626174    1.279763   -0.152570
      3         16           0        1.952753    5.388628   -0.812439
      4          6           0       -0.882312    2.170069    0.820725
      5          6           0        1.932708    2.897266    0.476539
      6          6           0        2.566514    3.761438   -0.418550
      7          6           0       -2.975354    0.631957    0.195801
      8          6           0       -2.049066    2.386893    1.545961
      9          1           0        0.246316    4.468801    0.586079
     10          6           0        2.384401    1.613824    0.700024
     11          6           0        3.673888    3.269502   -1.095477
     12          6           0        4.135912    1.984797   -0.893895
     13          6           0        3.494497    1.125461    0.002977
     14          1           0        1.857267    0.971131    1.395345
     15          1           0        4.176334    3.912174   -1.811785
     16          1           0        4.992977    1.632150   -1.456718
     17          6           0       -3.122467    1.590215    1.210611
     18          1           0       -1.688273   -0.276733   -1.226088
     19          1           0        2.539000    6.051116    0.206249
     20          1           0       -2.132551    3.120151    2.347153
     21          1           0       -4.068236    1.688167    1.734116
     22         16           0        0.491419    3.391365    1.378930
     23          7           0        3.940024   -0.175839    0.195205
     24          6           0        5.265040   -0.539150   -0.184549
     25          6           0        5.479402   -1.520085   -1.147894
     26          6           0        6.360048    0.068673    0.412912
     27          6           0        6.761446   -1.889048   -1.505778
     28          6           0        7.649207   -0.280692    0.044528
     29          6           0        7.852726   -1.265560   -0.913210
     30          1           0        4.624132   -2.002234   -1.612555
     31          1           0        6.198832    0.830082    1.170918
     32          1           0        6.936355   -2.656092   -2.253454
     33          1           0        8.499101    0.206598    0.518215
     34          6           0        3.067884   -1.217797    0.624973
     35          6           0        3.533169   -2.175669    1.516644
     36          6           0        1.768428   -1.324352    0.133595
     37          6           0        2.723890   -3.230889    1.904642
     38          6           0        0.952027   -2.363639    0.537000
     39          6           0        1.429133   -3.326131    1.415171
     40          1           0        4.545758   -2.102962    1.902377
     41          1           0        1.364259   -0.566763   -0.534909
     42          1           0        3.106488   -3.978127    2.597301
     43          1           0       -0.063643   -2.437107    0.162477
     44          7           0       -4.071583   -0.199288   -0.137893
     45          6           0       -5.379657    0.330758   -0.192504
     46          6           0       -6.464072   -0.381862    0.308117
     47          6           0       -5.615898    1.583782   -0.758482
     48          6           0       -7.748035    0.135409    0.237366
     49          6           0       -6.890741    2.113870   -0.808775
     50          6           0       -7.966332    1.388715   -0.314728
     51          1           0       -6.301182   -1.359246    0.752201
     52          1           0       -4.779992    2.148147   -1.160920
     53          1           0       -8.582756   -0.442294    0.630527
     54          1           0       -7.071352    3.090185   -1.247847
     55          6           0       -3.863071   -1.579858   -0.373004
     56          6           0       -4.488297   -2.228332   -1.435995
     57          6           0       -3.028002   -2.320518    0.455690
     58          6           0       -4.288516   -3.577498   -1.662294
     59          6           0       -2.802155   -3.666597    0.218956
     60          6           0       -3.435225   -4.300687   -0.840523
     61          1           0       -5.141183   -1.661753   -2.093518
     62          1           0       -2.533592   -1.828985    1.288374
     63          1           0       -4.774148   -4.081779   -2.492022
     64          1           0       -2.125658   -4.220184    0.867724
     65          8           0        0.584592   -4.343911    1.769173
     66          1           0        1.030590   -4.920168    2.399784
     67          8           0        9.095256   -1.661445   -1.308356
     68          1           0        9.763222   -1.159512   -0.827959
     69          8           0       -9.209724    1.953542   -0.400297
     70          1           0       -9.859516    1.347058   -0.028653
     71          8           0       -3.254007   -5.627948   -1.116747
     72          1           0       -2.609433   -5.991357   -0.499352
 ---------------------------------------------------------------------

 SCF Done:  E(ULC-wHPBE) =  -2593.71565877     A.U. after   33 cycles
 SCF Done:  E(ULC-wHPBE) =  -2593.71578168     a.u. after    2 cycles

 The electronic state is 2-A.
 Alpha  occ. eigenvalues --  -88.37681 -88.29378 -18.96496 -18.96094 -18.95891
 Alpha  occ. eigenvalues --  -18.94587 -14.24388 -14.20578 -10.13989 -10.13786
 Alpha  occ. eigenvalues --  -10.13653 -10.13638 -10.13235 -10.12887 -10.12188
 Alpha  occ. eigenvalues --  -10.12164 -10.11850 -10.11635 -10.11571 -10.10630
 Alpha  occ. eigenvalues --  -10.09999 -10.09501 -10.09476 -10.09277 -10.09233
 Alpha  occ. eigenvalues --  -10.08775 -10.08666 -10.08441 -10.08227 -10.08123
 Alpha  occ. eigenvalues --  -10.07968 -10.07822 -10.07661 -10.07521 -10.07215
 Alpha  occ. eigenvalues --  -10.06947 -10.06549 -10.06483 -10.06467 -10.06344
 Alpha  occ. eigenvalues --  -10.06050 -10.06048 -10.05954 -10.05275  -7.96697
 Alpha  occ. eigenvalues --   -7.88579  -5.98650  -5.98545  -5.97969  -5.90781
 Alpha  occ. eigenvalues --   -5.90347  -5.89619  -1.16134  -1.15734  -1.15498
 Alpha  occ. eigenvalues --   -1.14435  -1.10422  -1.07923  -1.02613  -0.99975
 Alpha  occ. eigenvalues --   -0.98197  -0.97103  -0.96501  -0.96007  -0.94928
 Alpha  occ. eigenvalues --   -0.91896  -0.89790  -0.89145  -0.88043  -0.87713
 Alpha  occ. eigenvalues --   -0.87314  -0.87095  -0.86580  -0.86097  -0.85617
 Alpha  occ. eigenvalues --   -0.85332  -0.83513  -0.81553  -0.77619  -0.77343
 Alpha  occ. eigenvalues --   -0.76231  -0.76014  -0.75666  -0.74814  -0.74524
 Alpha  occ. eigenvalues --   -0.74061  -0.73711  -0.72571  -0.71290  -0.70709
 Alpha  occ. eigenvalues --   -0.68669  -0.68471  -0.68043  -0.67768  -0.67409
 Alpha  occ. eigenvalues --   -0.67059  -0.66607  -0.65943  -0.64620  -0.63130
 Alpha  occ. eigenvalues --   -0.62823  -0.62232  -0.61455  -0.61159  -0.60665
 Alpha  occ. eigenvalues --   -0.59534  -0.59475  -0.59213  -0.58603  -0.58181
 Alpha  occ. eigenvalues --   -0.58096  -0.57423  -0.56632  -0.56447  -0.56314
 Alpha  occ. eigenvalues --   -0.56261  -0.56081  -0.55645  -0.55456  -0.55245
 Alpha  occ. eigenvalues --   -0.55016  -0.54689  -0.54600  -0.54522  -0.54263
 Alpha  occ. eigenvalues --   -0.54039  -0.53807  -0.53407  -0.52900  -0.52428
 Alpha  occ. eigenvalues --   -0.51901  -0.51468  -0.51098  -0.50744  -0.50484
 Alpha  occ. eigenvalues --   -0.50074  -0.49715  -0.49316  -0.49278  -0.48372
 Alpha  occ. eigenvalues --   -0.48044  -0.47703  -0.47364  -0.47068  -0.46239
 Alpha  occ. eigenvalues --   -0.46107  -0.44714  -0.42734  -0.42255  -0.41863
 Alpha  occ. eigenvalues --   -0.41434  -0.41018  -0.40563  -0.40104  -0.39642
 Alpha  occ. eigenvalues --   -0.39051  -0.38614  -0.38163  -0.36760  -0.34017
 Alpha  occ. eigenvalues --   -0.32447
 Alpha virt. eigenvalues --   -0.10391  -0.09558  -0.08936  -0.07825  -0.06659
 Alpha virt. eigenvalues --   -0.06415  -0.06356  -0.06001  -0.05705  -0.05025
 Alpha virt. eigenvalues --   -0.04414  -0.04319  -0.02822  -0.02675  -0.01997

  Beta  occ. eigenvalues --  -88.37672 -88.29376 -18.96439 -18.96055 -18.95889
  Beta  occ. eigenvalues --  -18.94587 -14.23975 -14.20566 -10.13984 -10.13746
  Beta  occ. eigenvalues --  -10.13575 -10.13560 -10.13179 -10.12882 -10.12189
  Beta  occ. eigenvalues --  -10.12161 -10.11862 -10.11651 -10.11570 -10.10611
  Beta  occ. eigenvalues --  -10.10001 -10.09444 -10.09414 -10.09277 -10.09231
  Beta  occ. eigenvalues --  -10.08771 -10.08370 -10.08160 -10.08063 -10.07996
  Beta  occ. eigenvalues --  -10.07918 -10.07822 -10.07680 -10.07534 -10.07233
  Beta  occ. eigenvalues --  -10.06963 -10.06547 -10.06478 -10.06468 -10.06343
  Beta  occ. eigenvalues --  -10.06049 -10.06047 -10.05954 -10.05276  -7.96687
  Beta  occ. eigenvalues --   -7.88577  -5.98640  -5.98528  -5.97961  -5.90780
  Beta  occ. eigenvalues --   -5.90346  -5.89615  -1.16031  -1.15663  -1.15495
  Beta  occ. eigenvalues --   -1.14434  -1.09905  -1.07908  -1.02527  -0.99748
  Beta  occ. eigenvalues --   -0.98094  -0.97018  -0.96483  -0.95911  -0.94896
  Beta  occ. eigenvalues --   -0.91887  -0.89641  -0.88851  -0.87852  -0.87649
  Beta  occ. eigenvalues --   -0.87214  -0.87021  -0.86565  -0.86079  -0.85609
  Beta  occ. eigenvalues --   -0.85317  -0.83261  -0.81539  -0.77467  -0.77193
  Beta  occ. eigenvalues --   -0.76186  -0.75869  -0.75554  -0.74704  -0.74489
  Beta  occ. eigenvalues --   -0.73950  -0.73688  -0.72560  -0.71175  -0.70631
  Beta  occ. eigenvalues --   -0.68549  -0.68408  -0.68027  -0.67559  -0.67394
  Beta  occ. eigenvalues --   -0.66947  -0.66600  -0.65881  -0.64528  -0.62892
  Beta  occ. eigenvalues --   -0.62756  -0.62160  -0.61287  -0.61123  -0.60535
  Beta  occ. eigenvalues --   -0.59501  -0.59436  -0.59070  -0.58559  -0.58119
  Beta  occ. eigenvalues --   -0.58039  -0.57370  -0.56594  -0.56430  -0.56293
  Beta  occ. eigenvalues --   -0.56191  -0.55982  -0.55514  -0.55397  -0.55039
  Beta  occ. eigenvalues --   -0.54925  -0.54682  -0.54508  -0.54321  -0.54246
  Beta  occ. eigenvalues --   -0.53834  -0.53689  -0.53381  -0.52819  -0.52293
  Beta  occ. eigenvalues --   -0.51724  -0.51422  -0.51036  -0.50601  -0.50401
  Beta  occ. eigenvalues --   -0.49844  -0.49684  -0.49297  -0.48990  -0.48352
  Beta  occ. eigenvalues --   -0.47970  -0.47658  -0.47355  -0.47032  -0.46237
  Beta  occ. eigenvalues --   -0.45496  -0.44656  -0.42437  -0.42063  -0.41479
  Beta  occ. eigenvalues --   -0.41234  -0.40895  -0.40222  -0.40032  -0.39560
  Beta  occ. eigenvalues --   -0.38765  -0.37783  -0.36759  -0.33040  -0.32207
  Beta virt. eigenvalues --   -0.20866  -0.10168  -0.09354  -0.08634  -0.07673
  Beta virt. eigenvalues --   -0.06496  -0.06131  -0.06034  -0.05847  -0.05473
  Beta virt. eigenvalues --   -0.04970  -0.04373  -0.04296  -0.02697  -0.02375

 Mulliken charges and spin densities:
               1          2
     1  C   -0.231365   0.057991
     2  C    0.088367   0.435675
     3  S   -0.047716   0.002514
     4  C   -0.301462   0.008729
     5  C    0.074484  -0.018880
     6  C   -0.288647  -0.001133
     7  C   -0.013250   0.020829
     8  C   -0.043949   0.006144
     9  H    0.147175   0.001904
    10  C   -0.177667   0.018920
    11  C   -0.032503   0.003278
    12  C   -0.079155  -0.000401
    13  C    0.027009   0.000437
    14  H    0.235784  -0.000082
    15  H    0.145391  -0.000176
    16  H    0.176218   0.000071
    17  C   -0.143495   0.014290
    18  H    0.180365   0.014471
    19  H    0.132287  -0.000044
    20  H    0.164543   0.008842
    21  H    0.175563  -0.000410
    22  S    0.259962   0.012790
    23  N    0.034986   0.005592
    24  C   -0.288249  -0.000150
    25  C    0.037901   0.000579
    26  C   -0.026995   0.000660
    27  C   -0.215274  -0.000242
    28  C   -0.172847  -0.000367
    29  C    0.137973   0.000576
    30  H    0.125318  -0.000032
    31  H    0.127662  -0.000031
    32  H    0.133121   0.000025
    33  H    0.121777   0.000017
    34  C   -0.086362  -0.000469
    35  C   -0.090894   0.002540
    36  C   -0.130955   0.000164
    37  C   -0.136024  -0.001366
    38  C   -0.176326   0.000408
    39  C    0.092577   0.002014
    40  H    0.136306   0.000005
    41  H    0.173935   0.000325
    42  H    0.121298   0.000052
    43  H    0.146696   0.000472
    44  N    0.060655   0.193418
    45  C   -0.088084  -0.006265
    46  C   -0.090612   0.038623
    47  C   -0.077165   0.033224
    48  C   -0.155824  -0.015188
    49  C   -0.190433  -0.016516
    50  C    0.119580   0.040275
    51  H    0.159911  -0.001778
    52  H    0.152429  -0.001255
    53  H    0.132444   0.001043
    54  H    0.141500   0.000773
    55  C   -0.125465  -0.005324
    56  C   -0.051818   0.045830
    57  C   -0.129375   0.050020
    58  C   -0.190746  -0.019228
    59  C   -0.122010  -0.021510
    60  C    0.113354   0.057003
    61  H    0.156005  -0.002118
    62  H    0.158775  -0.002384
    63  H    0.144282   0.000979
    64  H    0.149587   0.000905
    65  O   -0.248816   0.000587
    66  H    0.279363  -0.000003
    67  O   -0.222515   0.000166
    68  H    0.276422  -0.000004
    69  O   -0.214926   0.013424
    70  H    0.280025  -0.000320
    71  O   -0.210952   0.019581
    72  H    0.280849  -0.000490
 Sum of Mulliken charges =   1.00000   1.00000

 Dipole moment (field-independent basis, Debye):
    X=             -1.7147    Y=              2.4562    Z=              4.7699  Tot=              5.6326
 Quadrupole moment (field-independent basis, Debye-Ang):
   XX=           -118.7873   YY=           -198.9470   ZZ=           -255.3883
   XY=             14.2779   XZ=              2.8277   YZ=             -2.7767

 Normal termination of Gaussian 16 at Fri Jan 22 02:59:27 2021.
