 Gaussian 16, Revision A.03,
 Gaussian 16:  EM64L-G16RevA.03 25-Dec-2016

 ----------------------------------------------------------------------
 #P LC-wHPBE/TZVP iop(3/107=0328100000, 3/108=0328100000) scf=(conver=6
 ,fermi,ndamp=35,noincfock,novaracc,vshift=500,xqc)
 ----------------------------------------------------------------------

 ----------------
 H28 C36 S2 N2 O4
 ----------------
 Symbolic Z-matrix:
 Charge =  1 Multiplicity = 2

                         Standard orientation:
 ---------------------------------------------------------------------
 Center     Atomic      Atomic             Coordinates (Angstroms)
 Number     Number       Type             X           Y           Z
 ---------------------------------------------------------------------
      1          6           0       -1.748928    0.489907   -0.452051
      2          6           0       -0.626174    1.279763   -0.152570
      3         16           0        1.952753    5.388628   -0.812439
      4          6           0       -0.882312    2.170069    0.820725
      5          6           0        1.932708    2.897266    0.476539
      6          6           0        2.566514    3.761438   -0.418550
      7          6           0       -2.975354    0.631957    0.195801
      8          6           0       -2.049066    2.386893    1.545961
      9          1           0        0.246316    4.468801    0.586079
     10          6           0        2.384401    1.613824    0.700024
     11          6           0        3.673888    3.269502   -1.095477
     12          6           0        4.135912    1.984797   -0.893895
     13          6           0        3.494497    1.125461    0.002977
     14          1           0        1.857267    0.971131    1.395345
     15          1           0        4.176334    3.912174   -1.811785
     16          1           0        4.992977    1.632150   -1.456718
     17          6           0       -3.122467    1.590215    1.210611
     18          1           0       -1.688273   -0.276733   -1.226088
     19          1           0        2.539000    6.051116    0.206249
     20          1           0       -2.132551    3.120151    2.347153
     21          1           0       -4.068236    1.688167    1.734116
     22         16           0        0.491419    3.391365    1.378930
     23          7           0        3.940024   -0.175839    0.195205
     24          6           0        5.265040   -0.539150   -0.184549
     25          6           0        5.479402   -1.520085   -1.147894
     26          6           0        6.360048    0.068673    0.412912
     27          6           0        6.761446   -1.889048   -1.505778
     28          6           0        7.649207   -0.280692    0.044528
     29          6           0        7.852726   -1.265560   -0.913210
     30          1           0        4.624132   -2.002234   -1.612555
     31          1           0        6.198832    0.830082    1.170918
     32          1           0        6.936355   -2.656092   -2.253454
     33          1           0        8.499101    0.206598    0.518215
     34          6           0        3.067884   -1.217797    0.624973
     35          6           0        3.533169   -2.175669    1.516644
     36          6           0        1.768428   -1.324352    0.133595
     37          6           0        2.723890   -3.230889    1.904642
     38          6           0        0.952027   -2.363639    0.537000
     39          6           0        1.429133   -3.326131    1.415171
     40          1           0        4.545758   -2.102962    1.902377
     41          1           0        1.364259   -0.566763   -0.534909
     42          1           0        3.106488   -3.978127    2.597301
     43          1           0       -0.063643   -2.437107    0.162477
     44          7           0       -4.071583   -0.199288   -0.137893
     45          6           0       -5.379657    0.330758   -0.192504
     46          6           0       -6.464072   -0.381862    0.308117
     47          6           0       -5.615898    1.583782   -0.758482
     48          6           0       -7.748035    0.135409    0.237366
     49          6           0       -6.890741    2.113870   -0.808775
     50          6           0       -7.966332    1.388715   -0.314728
     51          1           0       -6.301182   -1.359246    0.752201
     52          1           0       -4.779992    2.148147   -1.160920
     53          1           0       -8.582756   -0.442294    0.630527
     54          1           0       -7.071352    3.090185   -1.247847
     55          6           0       -3.863071   -1.579858   -0.373004
     56          6           0       -4.488297   -2.228332   -1.435995
     57          6           0       -3.028002   -2.320518    0.455690
     58          6           0       -4.288516   -3.577498   -1.662294
     59          6           0       -2.802155   -3.666597    0.218956
     60          6           0       -3.435225   -4.300687   -0.840523
     61          1           0       -5.141183   -1.661753   -2.093518
     62          1           0       -2.533592   -1.828985    1.288374
     63          1           0       -4.774148   -4.081779   -2.492022
     64          1           0       -2.125658   -4.220184    0.867724
     65          8           0        0.584592   -4.343911    1.769173
     66          1           0        1.030590   -4.920168    2.399784
     67          8           0        9.095256   -1.661445   -1.308356
     68          1           0        9.763222   -1.159512   -0.827959
     69          8           0       -9.209724    1.953542   -0.400297
     70          1           0       -9.859516    1.347058   -0.028653
     71          8           0       -3.254007   -5.627948   -1.116747
     72          1           0       -2.609433   -5.991357   -0.499352
 ---------------------------------------------------------------------

 SCF Done:  E(ULC-wHPBE) =  -2594.03694192     A.U. after   28 cycles

 The electronic state is 2-A.
 Alpha  occ. eigenvalues --  -88.45298 -88.37152 -19.06791 -19.06663 -19.03994
 Alpha  occ. eigenvalues --  -19.02368 -14.38281 -14.27963 -10.25361 -10.25261
 Alpha  occ. eigenvalues --  -10.23565 -10.23473 -10.22987 -10.22092 -10.21330
 Alpha  occ. eigenvalues --  -10.21121 -10.20887 -10.20280 -10.20249 -10.20212
 Alpha  occ. eigenvalues --  -10.19953 -10.19860 -10.19845 -10.18941 -10.18909
 Alpha  occ. eigenvalues --  -10.18586 -10.18514 -10.18409 -10.18252 -10.18176
 Alpha  occ. eigenvalues --  -10.17870 -10.17698 -10.17114 -10.16845 -10.15780
 Alpha  occ. eigenvalues --  -10.15031 -10.14964 -10.14828 -10.14689 -10.14535
 Alpha  occ. eigenvalues --  -10.14510 -10.14398 -10.13691 -10.12083  -8.04570
 Alpha  occ. eigenvalues --   -7.96585  -6.06243  -6.06092  -6.05491  -5.98507
 Alpha  occ. eigenvalues --   -5.98033  -5.97269  -1.26914  -1.26792  -1.24073
 Alpha  occ. eigenvalues --   -1.23196  -1.22730  -1.16265  -1.10910  -1.10081
 Alpha  occ. eigenvalues --   -1.09282  -1.07583  -1.05241  -1.04654  -1.03341
 Alpha  occ. eigenvalues --   -0.99819  -0.99625  -0.99370  -0.98389  -0.97975
 Alpha  occ. eigenvalues --   -0.95975  -0.95406  -0.94677  -0.94224  -0.93734
 Alpha  occ. eigenvalues --   -0.93126  -0.92411  -0.88809  -0.87088  -0.86643
 Alpha  occ. eigenvalues --   -0.85049  -0.83882  -0.82892  -0.82554  -0.82465
 Alpha  occ. eigenvalues --   -0.81293  -0.80595  -0.79797  -0.79248  -0.77856
 Alpha  occ. eigenvalues --   -0.77175  -0.77123  -0.75970  -0.74905  -0.74033
 Alpha  occ. eigenvalues --   -0.73729  -0.72847  -0.72323  -0.71605  -0.70544
 Alpha  occ. eigenvalues --   -0.69515  -0.68183  -0.67963  -0.67361  -0.66996
 Alpha  occ. eigenvalues --   -0.66737  -0.66367  -0.65347  -0.65215  -0.64770
 Alpha  occ. eigenvalues --   -0.64635  -0.64536  -0.64413  -0.64081  -0.63790
 Alpha  occ. eigenvalues --   -0.63487  -0.62817  -0.62233  -0.62105  -0.61779
 Alpha  occ. eigenvalues --   -0.61033  -0.60901  -0.60576  -0.60404  -0.60200
 Alpha  occ. eigenvalues --   -0.60101  -0.59565  -0.59533  -0.59051  -0.58756
 Alpha  occ. eigenvalues --   -0.58474  -0.57918  -0.57510  -0.57103  -0.56587
 Alpha  occ. eigenvalues --   -0.55774  -0.55465  -0.55312  -0.54578  -0.54168
 Alpha  occ. eigenvalues --   -0.53969  -0.53432  -0.53047  -0.52512  -0.51871
 Alpha  occ. eigenvalues --   -0.51126  -0.48807  -0.48016  -0.47456  -0.46590
 Alpha  occ. eigenvalues --   -0.45290  -0.45196  -0.44496  -0.44173  -0.43399
 Alpha  occ. eigenvalues --   -0.42978  -0.41987  -0.40298  -0.40087  -0.37694
 Alpha  occ. eigenvalues --   -0.34806
 Alpha virt. eigenvalues --   -0.06815  -0.06131  -0.05871  -0.05537  -0.04590
 Alpha virt. eigenvalues --   -0.04158  -0.02910  -0.02300  -0.01908  -0.00891
 Alpha virt. eigenvalues --   -0.00492  -0.00196   0.00141   0.01720   0.02227

  Beta  occ. eigenvalues --  -88.45299 -88.37151 -19.06705 -19.06570 -19.03994
  Beta  occ. eigenvalues --  -19.02368 -14.37364 -14.27961 -10.25196 -10.25088
  Beta  occ. eigenvalues --  -10.23655 -10.23550 -10.23061 -10.22091 -10.21165
  Beta  occ. eigenvalues --  -10.21119 -10.20887 -10.20282 -10.20249 -10.20051
  Beta  occ. eigenvalues --  -10.19790 -10.19709 -10.19699 -10.19017 -10.18990
  Beta  occ. eigenvalues --  -10.18593 -10.18441 -10.18409 -10.18332 -10.18254
  Beta  occ. eigenvalues --  -10.17698 -10.17661 -10.17114 -10.16843 -10.15781
  Beta  occ. eigenvalues --  -10.15031 -10.14964 -10.14828 -10.14689 -10.14535
  Beta  occ. eigenvalues --  -10.14510 -10.14398 -10.13691 -10.12076  -8.04572
  Beta  occ. eigenvalues --   -7.96584  -6.06244  -6.06094  -6.05494  -5.98506
  Beta  occ. eigenvalues --   -5.98033  -5.97266  -1.26741  -1.26606  -1.24073
  Beta  occ. eigenvalues --   -1.22730  -1.22030  -1.16263  -1.10848  -1.09867
  Beta  occ. eigenvalues --   -1.09073  -1.07295  -1.05234  -1.04592  -1.03298
  Beta  occ. eigenvalues --   -0.99802  -0.99436  -0.99237  -0.98255  -0.97831
  Beta  occ. eigenvalues --   -0.95730  -0.95286  -0.94656  -0.94158  -0.93634
  Beta  occ. eigenvalues --   -0.93038  -0.92104  -0.88803  -0.86878  -0.86393
  Beta  occ. eigenvalues --   -0.84769  -0.83732  -0.82851  -0.82498  -0.82264
  Beta  occ. eigenvalues --   -0.81273  -0.80585  -0.79662  -0.79189  -0.77721
  Beta  occ. eigenvalues --   -0.77130  -0.76992  -0.75774  -0.74693  -0.74017
  Beta  occ. eigenvalues --   -0.73725  -0.72838  -0.72010  -0.71161  -0.70418
  Beta  occ. eigenvalues --   -0.69386  -0.68151  -0.67848  -0.67095  -0.66980
  Beta  occ. eigenvalues --   -0.66542  -0.66221  -0.65292  -0.64997  -0.64666
  Beta  occ. eigenvalues --   -0.64497  -0.64449  -0.64011  -0.63776  -0.63684
  Beta  occ. eigenvalues --   -0.63074  -0.62784  -0.62134  -0.61996  -0.61642
  Beta  occ. eigenvalues --   -0.60862  -0.60573  -0.60456  -0.60197  -0.60098
  Beta  occ. eigenvalues --   -0.60001  -0.59486  -0.59354  -0.58912  -0.58535
  Beta  occ. eigenvalues --   -0.57948  -0.57665  -0.57019  -0.56584  -0.56506
  Beta  occ. eigenvalues --   -0.55606  -0.55423  -0.55199  -0.54494  -0.54166
  Beta  occ. eigenvalues --   -0.53897  -0.53424  -0.52508  -0.51940  -0.51125
  Beta  occ. eigenvalues --   -0.50297  -0.48768  -0.47705  -0.47055  -0.45376
  Beta  occ. eigenvalues --   -0.45188  -0.44590  -0.43722  -0.43382  -0.43000
  Beta  occ. eigenvalues --   -0.42773  -0.41974  -0.40084  -0.36603  -0.34770
  Beta virt. eigenvalues --   -0.20256  -0.06391  -0.05935  -0.05403  -0.04756
  Beta virt. eigenvalues --   -0.04030  -0.03835  -0.02297  -0.01959  -0.01861
  Beta virt. eigenvalues --   -0.00869  -0.00403   0.00142   0.01031   0.01750

 Mulliken charges and spin densities:
               1          2
     1  C   -0.258705   0.154960
     2  C   -0.079856  -0.028732
     3  S   -0.060317   0.001558
     4  C   -0.265969   0.122541
     5  C    0.076853  -0.008103
     6  C   -0.315057  -0.002170
     7  C   -0.013180  -0.039316
     8  C   -0.063086  -0.075189
     9  H    0.158173   0.004883
    10  C   -0.140351   0.009562
    11  C   -0.033679   0.002130
    12  C   -0.112475  -0.001478
    13  C    0.007837   0.001244
    14  H    0.255982  -0.001146
    15  H    0.164795  -0.000056
    16  H    0.200875   0.000071
    17  C   -0.178032   0.102509
    18  H    0.184320  -0.002872
    19  H    0.128120  -0.000146
    20  H    0.178816   0.006188
    21  H    0.194594  -0.004471
    22  S    0.257291  -0.005034
    23  N   -0.019102   0.000652
    24  C   -0.294915   0.000094
    25  C    0.019856  -0.000036
    26  C   -0.042929  -0.000046
    27  C   -0.226763   0.000078
    28  C   -0.189210   0.000064
    29  C    0.127593  -0.000040
    30  H    0.148975  -0.000000
    31  H    0.153737  -0.000001
    32  H    0.153466  -0.000002
    33  H    0.141112  -0.000002
    34  C   -0.106703  -0.000323
    35  C   -0.110888   0.000081
    36  C   -0.130036   0.000069
    37  C   -0.153858   0.000003
    38  C   -0.196314  -0.000102
    39  C    0.092694  -0.000054
    40  H    0.161113   0.000000
    41  H    0.209011  -0.000094
    42  H    0.140093   0.000002
    43  H    0.152706   0.000252
    44  N    0.086433   0.413260
    45  C   -0.123001  -0.053134
    46  C   -0.091981   0.118248
    47  C   -0.070129   0.107552
    48  C   -0.169007  -0.078749
    49  C   -0.202020  -0.079404
    50  C    0.122773   0.127773
    51  H    0.196012  -0.004925
    52  H    0.198728  -0.004271
    53  H    0.162765   0.003506
    54  H    0.175384   0.003392
    55  C   -0.147552  -0.046633
    56  C   -0.054646   0.110665
    57  C   -0.124241   0.119478
    58  C   -0.205394  -0.077908
    59  C   -0.142084  -0.082295
    60  C    0.118648   0.134279
    61  H    0.190063  -0.004584
    62  H    0.202943  -0.005252
    63  H    0.174709   0.003453
    64  H    0.183672   0.003391
    65  O   -0.268802   0.000006
    66  H    0.281428   0.000002
    67  O   -0.236368  -0.000002
    68  H    0.277288  -0.000001
    69  O   -0.213525   0.026875
    70  H    0.286399  -0.000736
    71  O   -0.213352   0.029304
    72  H    0.288272  -0.000819
 Sum of Mulliken charges =   1.00000   1.00000

 Dipole moment (field-independent basis, Debye):
    X=             -7.9702    Y=              0.8298    Z=              4.6405  Tot=              9.2600
 Quadrupole moment (field-independent basis, Debye-Ang):
   XX=            -96.8694   YY=           -199.0676   ZZ=           -255.0300
   XY=             16.4031   XZ=              6.2606   YZ=             -1.9813

 Normal termination of Gaussian 16 at Thu Jan 21 12:02:49 2021.
