 Gaussian 16, Revision A.03,
 Gaussian 16:  EM64L-G16RevA.03 25-Dec-2016

 ----------------------------------------------------------------------
 #P LC-wHPBE/TZVP iop(3/107=0156200000, 3/108=0156200000) scf=(conver=6
 ,fermi,ndamp=35,noincfock,novaracc,vshift=500,xqc)
 ----------------------------------------------------------------------

 ----------------
 H28 C36 S2 N2 O4
 ----------------
 Symbolic Z-matrix:
 Charge =  1 Multiplicity = 2

                         Standard orientation:
 ---------------------------------------------------------------------
 Center     Atomic      Atomic             Coordinates (Angstroms)
 Number     Number       Type             X           Y           Z
 ---------------------------------------------------------------------
      1          6           0       -1.748928    0.489907   -0.452051
      2          6           0       -0.626174    1.279763   -0.152570
      3         16           0        1.952753    5.388628   -0.812439
      4          6           0       -0.882312    2.170069    0.820725
      5          6           0        1.932708    2.897266    0.476539
      6          6           0        2.566514    3.761438   -0.418550
      7          6           0       -2.975354    0.631957    0.195801
      8          6           0       -2.049066    2.386893    1.545961
      9          1           0        0.246316    4.468801    0.586079
     10          6           0        2.384401    1.613824    0.700024
     11          6           0        3.673888    3.269502   -1.095477
     12          6           0        4.135912    1.984797   -0.893895
     13          6           0        3.494497    1.125461    0.002977
     14          1           0        1.857267    0.971131    1.395345
     15          1           0        4.176334    3.912174   -1.811785
     16          1           0        4.992977    1.632150   -1.456718
     17          6           0       -3.122467    1.590215    1.210611
     18          1           0       -1.688273   -0.276733   -1.226088
     19          1           0        2.539000    6.051116    0.206249
     20          1           0       -2.132551    3.120151    2.347153
     21          1           0       -4.068236    1.688167    1.734116
     22         16           0        0.491419    3.391365    1.378930
     23          7           0        3.940024   -0.175839    0.195205
     24          6           0        5.265040   -0.539150   -0.184549
     25          6           0        5.479402   -1.520085   -1.147894
     26          6           0        6.360048    0.068673    0.412912
     27          6           0        6.761446   -1.889048   -1.505778
     28          6           0        7.649207   -0.280692    0.044528
     29          6           0        7.852726   -1.265560   -0.913210
     30          1           0        4.624132   -2.002234   -1.612555
     31          1           0        6.198832    0.830082    1.170918
     32          1           0        6.936355   -2.656092   -2.253454
     33          1           0        8.499101    0.206598    0.518215
     34          6           0        3.067884   -1.217797    0.624973
     35          6           0        3.533169   -2.175669    1.516644
     36          6           0        1.768428   -1.324352    0.133595
     37          6           0        2.723890   -3.230889    1.904642
     38          6           0        0.952027   -2.363639    0.537000
     39          6           0        1.429133   -3.326131    1.415171
     40          1           0        4.545758   -2.102962    1.902377
     41          1           0        1.364259   -0.566763   -0.534909
     42          1           0        3.106488   -3.978127    2.597301
     43          1           0       -0.063643   -2.437107    0.162477
     44          7           0       -4.071583   -0.199288   -0.137893
     45          6           0       -5.379657    0.330758   -0.192504
     46          6           0       -6.464072   -0.381862    0.308117
     47          6           0       -5.615898    1.583782   -0.758482
     48          6           0       -7.748035    0.135409    0.237366
     49          6           0       -6.890741    2.113870   -0.808775
     50          6           0       -7.966332    1.388715   -0.314728
     51          1           0       -6.301182   -1.359246    0.752201
     52          1           0       -4.779992    2.148147   -1.160920
     53          1           0       -8.582756   -0.442294    0.630527
     54          1           0       -7.071352    3.090185   -1.247847
     55          6           0       -3.863071   -1.579858   -0.373004
     56          6           0       -4.488297   -2.228332   -1.435995
     57          6           0       -3.028002   -2.320518    0.455690
     58          6           0       -4.288516   -3.577498   -1.662294
     59          6           0       -2.802155   -3.666597    0.218956
     60          6           0       -3.435225   -4.300687   -0.840523
     61          1           0       -5.141183   -1.661753   -2.093518
     62          1           0       -2.533592   -1.828985    1.288374
     63          1           0       -4.774148   -4.081779   -2.492022
     64          1           0       -2.125658   -4.220184    0.867724
     65          8           0        0.584592   -4.343911    1.769173
     66          1           0        1.030590   -4.920168    2.399784
     67          8           0        9.095256   -1.661445   -1.308356
     68          1           0        9.763222   -1.159512   -0.827959
     69          8           0       -9.209724    1.953542   -0.400297
     70          1           0       -9.859516    1.347058   -0.028653
     71          8           0       -3.254007   -5.627948   -1.116747
     72          1           0       -2.609433   -5.991357   -0.499352
 ---------------------------------------------------------------------

 SCF Done:  E(ULC-wHPBE) =  -2593.69985458     A.U. after   33 cycles
 SCF Done:  E(ULC-wHPBE) =  -2593.69995678     a.u. after    2 cycles

 The electronic state is 2-A.
 Alpha  occ. eigenvalues --  -88.37181 -88.28951 -18.96182 -18.95779 -18.95512
 Alpha  occ. eigenvalues --  -18.94207 -14.24056 -14.20185 -10.13519 -10.13329
 Alpha  occ. eigenvalues --  -10.13308 -10.13131 -10.12890 -10.12434 -10.11750
 Alpha  occ. eigenvalues --  -10.11735 -10.11507 -10.11291 -10.11159 -10.10164
 Alpha  occ. eigenvalues --  -10.09581 -10.09040 -10.09038 -10.08866 -10.08787
 Alpha  occ. eigenvalues --  -10.08329 -10.08087 -10.08087 -10.07880 -10.07778
 Alpha  occ. eigenvalues --  -10.07615 -10.07384 -10.07316 -10.07178 -10.06872
 Alpha  occ. eigenvalues --  -10.06602 -10.06137 -10.06061 -10.06058 -10.05933
 Alpha  occ. eigenvalues --  -10.05641 -10.05639 -10.05548 -10.04872  -7.96194
 Alpha  occ. eigenvalues --   -7.88146  -5.98153  -5.98048  -5.97474  -5.90354
 Alpha  occ. eigenvalues --   -5.89921  -5.89194  -1.15796  -1.15396  -1.15099
 Alpha  occ. eigenvalues --   -1.14033  -1.10043  -1.07489  -1.02114  -0.99495
 Alpha  occ. eigenvalues --   -0.97831  -0.96690  -0.96072  -0.95573  -0.94485
 Alpha  occ. eigenvalues --   -0.91444  -0.89354  -0.88707  -0.87651  -0.87315
 Alpha  occ. eigenvalues --   -0.86952  -0.86687  -0.86156  -0.85673  -0.85200
 Alpha  occ. eigenvalues --   -0.84907  -0.83132  -0.81137  -0.77248  -0.76962
 Alpha  occ. eigenvalues --   -0.75832  -0.75621  -0.75277  -0.74454  -0.74137
 Alpha  occ. eigenvalues --   -0.73690  -0.73316  -0.72179  -0.70927  -0.70320
 Alpha  occ. eigenvalues --   -0.68328  -0.68154  -0.67666  -0.67400  -0.67029
 Alpha  occ. eigenvalues --   -0.66743  -0.66238  -0.65575  -0.64244  -0.62776
 Alpha  occ. eigenvalues --   -0.62441  -0.61858  -0.61099  -0.60785  -0.60343
 Alpha  occ. eigenvalues --   -0.59163  -0.59102  -0.58833  -0.58227  -0.57874
 Alpha  occ. eigenvalues --   -0.57799  -0.57049  -0.56305  -0.56109  -0.55987
 Alpha  occ. eigenvalues --   -0.55944  -0.55779  -0.55300  -0.55101  -0.54937
 Alpha  occ. eigenvalues --   -0.54689  -0.54342  -0.54263  -0.54166  -0.53902
 Alpha  occ. eigenvalues --   -0.53687  -0.53496  -0.53044  -0.52545  -0.52111
 Alpha  occ. eigenvalues --   -0.51586  -0.51131  -0.50822  -0.50411  -0.50144
 Alpha  occ. eigenvalues --   -0.49774  -0.49379  -0.48998  -0.48982  -0.48036
 Alpha  occ. eigenvalues --   -0.47776  -0.47447  -0.47024  -0.46749  -0.45922
 Alpha  occ. eigenvalues --   -0.45794  -0.44383  -0.42418  -0.41949  -0.41565
 Alpha  occ. eigenvalues --   -0.41197  -0.40758  -0.40293  -0.39813  -0.39346
 Alpha  occ. eigenvalues --   -0.38709  -0.38322  -0.37866  -0.36495  -0.33834
 Alpha  occ. eigenvalues --   -0.32214
 Alpha virt. eigenvalues --   -0.10528  -0.09712  -0.09101  -0.08003  -0.06863
 Alpha virt. eigenvalues --   -0.06636  -0.06575  -0.06205  -0.05961  -0.05218
 Alpha virt. eigenvalues --   -0.04608  -0.04525  -0.03058  -0.02868  -0.02201

  Beta  occ. eigenvalues --  -88.37173 -88.28949 -18.96123 -18.95738 -18.95511
  Beta  occ. eigenvalues --  -18.94206 -14.23639 -14.20173 -10.13515 -10.13291
  Beta  occ. eigenvalues --  -10.13229 -10.13051 -10.12833 -10.12429 -10.11747
  Beta  occ. eigenvalues --  -10.11736 -10.11517 -10.11305 -10.11158 -10.10147
  Beta  occ. eigenvalues --  -10.09583 -10.09004 -10.08952 -10.08867 -10.08785
  Beta  occ. eigenvalues --  -10.08325 -10.08016 -10.07813 -10.07717 -10.07565
  Beta  occ. eigenvalues --  -10.07436 -10.07385 -10.07334 -10.07191 -10.06889
  Beta  occ. eigenvalues --  -10.06617 -10.06134 -10.06060 -10.06056 -10.05931
  Beta  occ. eigenvalues --  -10.05640 -10.05638 -10.05548 -10.04872  -7.96185
  Beta  occ. eigenvalues --   -7.88145  -5.98144  -5.98031  -5.97467  -5.90353
  Beta  occ. eigenvalues --   -5.89920  -5.89190  -1.15689  -1.15321  -1.15095
  Beta  occ. eigenvalues --   -1.14032  -1.09520  -1.07473  -1.02031  -0.99273
  Beta  occ. eigenvalues --   -0.97724  -0.96599  -0.96055  -0.95481  -0.94453
  Beta  occ. eigenvalues --   -0.91434  -0.89206  -0.88433  -0.87457  -0.87242
  Beta  occ. eigenvalues --   -0.86849  -0.86612  -0.86142  -0.85655  -0.85192
  Beta  occ. eigenvalues --   -0.84892  -0.82880  -0.81123  -0.77099  -0.76819
  Beta  occ. eigenvalues --   -0.75790  -0.75469  -0.75172  -0.74339  -0.74102
  Beta  occ. eigenvalues --   -0.73581  -0.73295  -0.72168  -0.70809  -0.70248
  Beta  occ. eigenvalues --   -0.68215  -0.68090  -0.67649  -0.67191  -0.67014
  Beta  occ. eigenvalues --   -0.66629  -0.66231  -0.65514  -0.64152  -0.62529
  Beta  occ. eigenvalues --   -0.62387  -0.61791  -0.60933  -0.60753  -0.60208
  Beta  occ. eigenvalues --   -0.59135  -0.59064  -0.58687  -0.58184  -0.57813
  Beta  occ. eigenvalues --   -0.57742  -0.56998  -0.56264  -0.56093  -0.55957
  Beta  occ. eigenvalues --   -0.55889  -0.55673  -0.55167  -0.55045  -0.54727
  Beta  occ. eigenvalues --   -0.54597  -0.54336  -0.54173  -0.53980  -0.53887
  Beta  occ. eigenvalues --   -0.53482  -0.53367  -0.53020  -0.52467  -0.51969
  Beta  occ. eigenvalues --   -0.51421  -0.51084  -0.50762  -0.50265  -0.50062
  Beta  occ. eigenvalues --   -0.49542  -0.49351  -0.48965  -0.48711  -0.48014
  Beta  occ. eigenvalues --   -0.47705  -0.47401  -0.47015  -0.46715  -0.45920
  Beta  occ. eigenvalues --   -0.45190  -0.44327  -0.42127  -0.41754  -0.41188
  Beta  occ. eigenvalues --   -0.40988  -0.40648  -0.39959  -0.39751  -0.39280
  Beta  occ. eigenvalues --   -0.38486  -0.37583  -0.36493  -0.32880  -0.31992
  Beta virt. eigenvalues --   -0.20932  -0.10311  -0.09509  -0.08804  -0.07860
  Beta virt. eigenvalues --   -0.06689  -0.06341  -0.06260  -0.06060  -0.05731
  Beta virt. eigenvalues --   -0.05164  -0.04572  -0.04496  -0.02897  -0.02589

 Mulliken charges and spin densities:
               1          2
     1  C   -0.232368   0.058887
     2  C    0.086246   0.424061
     3  S   -0.048204   0.002593
     4  C   -0.301557   0.010408
     5  C    0.076105  -0.018912
     6  C   -0.288022  -0.000912
     7  C   -0.012697   0.019958
     8  C   -0.043440   0.005267
     9  H    0.146386   0.001954
    10  C   -0.176559   0.018829
    11  C   -0.032078   0.003109
    12  C   -0.078499  -0.000188
    13  C    0.026429   0.000405
    14  H    0.234742  -0.000091
    15  H    0.144580  -0.000169
    16  H    0.175234   0.000061
    17  C   -0.143862   0.015615
    18  H    0.179062   0.014063
    19  H    0.132262  -0.000028
    20  H    0.163609   0.008794
    21  H    0.174565  -0.000478
    22  S    0.257888   0.012473
    23  N    0.036950   0.005937
    24  C   -0.288234  -0.000154
    25  C    0.037764   0.000614
    26  C   -0.027323   0.000710
    27  C   -0.214295  -0.000252
    28  C   -0.171776  -0.000380
    29  C    0.137945   0.000620
    30  H    0.124732  -0.000034
    31  H    0.127145  -0.000033
    32  H    0.132636   0.000026
    33  H    0.121300   0.000018
    34  C   -0.086516  -0.000511
    35  C   -0.090676   0.002643
    36  C   -0.130761   0.000153
    37  C   -0.135169  -0.001406
    38  C   -0.175925   0.000420
    39  C    0.092899   0.002130
    40  H    0.135683  -0.000000
    41  H    0.173448   0.000409
    42  H    0.120777   0.000053
    43  H    0.146192   0.000468
    44  N    0.062758   0.194898
    45  C   -0.088023  -0.005096
    46  C   -0.090410   0.038982
    47  C   -0.077000   0.033551
    48  C   -0.154716  -0.014916
    49  C   -0.189351  -0.016160
    50  C    0.119759   0.041093
    51  H    0.159415  -0.001802
    52  H    0.152305  -0.001273
    53  H    0.132221   0.001036
    54  H    0.141385   0.000759
    55  C   -0.124889  -0.003790
    56  C   -0.051981   0.045824
    57  C   -0.129072   0.050069
    58  C   -0.189625  -0.018683
    59  C   -0.120893  -0.020769
    60  C    0.113705   0.057539
    61  H    0.155500  -0.002124
    62  H    0.158578  -0.002388
    63  H    0.144093   0.000962
    64  H    0.149169   0.000873
    65  O   -0.249025   0.000644
    66  H    0.279353  -0.000004
    67  O   -0.222524   0.000184
    68  H    0.276438  -0.000005
    69  O   -0.214484   0.014048
    70  H    0.280186  -0.000335
    71  O   -0.210520   0.020263
    72  H    0.281032  -0.000506
 Sum of Mulliken charges =   1.00000   1.00000

 Dipole moment (field-independent basis, Debye):
    X=             -1.8593    Y=              2.3487    Z=              4.7413  Tot=              5.6083
 Quadrupole moment (field-independent basis, Debye-Ang):
   XX=           -117.7939   YY=           -198.9155   ZZ=           -255.4574
   XY=             14.2603   XZ=              2.9044   YZ=             -2.7949

 Normal termination of Gaussian 16 at Thu Jan 21 14:27:37 2021.
