 Gaussian 16, Revision A.03,
 Gaussian 16:  EM64L-G16RevA.03 25-Dec-2016

 ----------------------------------------------------------------------
 #P LC-wHPBE/TZVP iop(3/107=0167800000, 3/108=0167800000) scf=(conver=6
 ,fermi,ndamp=35,noincfock,novaracc,vshift=500,xqc)
 ----------------------------------------------------------------------

 ----------------
 H28 C36 S2 N2 O4
 ----------------
 Symbolic Z-matrix:
 Charge =  1 Multiplicity = 2

                         Standard orientation:
 ---------------------------------------------------------------------
 Center     Atomic      Atomic             Coordinates (Angstroms)
 Number     Number       Type             X           Y           Z
 ---------------------------------------------------------------------
      1          6           0       -1.748928    0.489907   -0.452051
      2          6           0       -0.626174    1.279763   -0.152570
      3         16           0        1.952753    5.388628   -0.812439
      4          6           0       -0.882312    2.170069    0.820725
      5          6           0        1.932708    2.897266    0.476539
      6          6           0        2.566514    3.761438   -0.418550
      7          6           0       -2.975354    0.631957    0.195801
      8          6           0       -2.049066    2.386893    1.545961
      9          1           0        0.246316    4.468801    0.586079
     10          6           0        2.384401    1.613824    0.700024
     11          6           0        3.673888    3.269502   -1.095477
     12          6           0        4.135912    1.984797   -0.893895
     13          6           0        3.494497    1.125461    0.002977
     14          1           0        1.857267    0.971131    1.395345
     15          1           0        4.176334    3.912174   -1.811785
     16          1           0        4.992977    1.632150   -1.456718
     17          6           0       -3.122467    1.590215    1.210611
     18          1           0       -1.688273   -0.276733   -1.226088
     19          1           0        2.539000    6.051116    0.206249
     20          1           0       -2.132551    3.120151    2.347153
     21          1           0       -4.068236    1.688167    1.734116
     22         16           0        0.491419    3.391365    1.378930
     23          7           0        3.940024   -0.175839    0.195205
     24          6           0        5.265040   -0.539150   -0.184549
     25          6           0        5.479402   -1.520085   -1.147894
     26          6           0        6.360048    0.068673    0.412912
     27          6           0        6.761446   -1.889048   -1.505778
     28          6           0        7.649207   -0.280692    0.044528
     29          6           0        7.852726   -1.265560   -0.913210
     30          1           0        4.624132   -2.002234   -1.612555
     31          1           0        6.198832    0.830082    1.170918
     32          1           0        6.936355   -2.656092   -2.253454
     33          1           0        8.499101    0.206598    0.518215
     34          6           0        3.067884   -1.217797    0.624973
     35          6           0        3.533169   -2.175669    1.516644
     36          6           0        1.768428   -1.324352    0.133595
     37          6           0        2.723890   -3.230889    1.904642
     38          6           0        0.952027   -2.363639    0.537000
     39          6           0        1.429133   -3.326131    1.415171
     40          1           0        4.545758   -2.102962    1.902377
     41          1           0        1.364259   -0.566763   -0.534909
     42          1           0        3.106488   -3.978127    2.597301
     43          1           0       -0.063643   -2.437107    0.162477
     44          7           0       -4.071583   -0.199288   -0.137893
     45          6           0       -5.379657    0.330758   -0.192504
     46          6           0       -6.464072   -0.381862    0.308117
     47          6           0       -5.615898    1.583782   -0.758482
     48          6           0       -7.748035    0.135409    0.237366
     49          6           0       -6.890741    2.113870   -0.808775
     50          6           0       -7.966332    1.388715   -0.314728
     51          1           0       -6.301182   -1.359246    0.752201
     52          1           0       -4.779992    2.148147   -1.160920
     53          1           0       -8.582756   -0.442294    0.630527
     54          1           0       -7.071352    3.090185   -1.247847
     55          6           0       -3.863071   -1.579858   -0.373004
     56          6           0       -4.488297   -2.228332   -1.435995
     57          6           0       -3.028002   -2.320518    0.455690
     58          6           0       -4.288516   -3.577498   -1.662294
     59          6           0       -2.802155   -3.666597    0.218956
     60          6           0       -3.435225   -4.300687   -0.840523
     61          1           0       -5.141183   -1.661753   -2.093518
     62          1           0       -2.533592   -1.828985    1.288374
     63          1           0       -4.774148   -4.081779   -2.492022
     64          1           0       -2.125658   -4.220184    0.867724
     65          8           0        0.584592   -4.343911    1.769173
     66          1           0        1.030590   -4.920168    2.399784
     67          8           0        9.095256   -1.661445   -1.308356
     68          1           0        9.763222   -1.159512   -0.827959
     69          8           0       -9.209724    1.953542   -0.400297
     70          1           0       -9.859516    1.347058   -0.028653
     71          8           0       -3.254007   -5.627948   -1.116747
     72          1           0       -2.609433   -5.991357   -0.499352
 ---------------------------------------------------------------------

 SCF Done:  E(ULC-wHPBE) =  -2593.72605257     A.U. after   33 cycles
 SCF Done:  E(ULC-wHPBE) =  -2593.72620863     a.u. after    2 cycles

 The electronic state is 2-A.
 Alpha  occ. eigenvalues --  -88.38020 -88.29664 -18.96693 -18.96292 -18.96141
 Alpha  occ. eigenvalues --  -18.94840 -14.24584 -14.20842 -10.14305 -10.14087
 Alpha  occ. eigenvalues --  -10.13981 -10.13871 -10.13452 -10.13191 -10.12493
 Alpha  occ. eigenvalues --  -10.12439 -10.12064 -10.11851 -10.11846 -10.10941
 Alpha  occ. eigenvalues --  -10.10279 -10.09808 -10.09764 -10.09551 -10.09533
 Alpha  occ. eigenvalues --  -10.09075 -10.09073 -10.08663 -10.08444 -10.08339
 Alpha  occ. eigenvalues --  -10.08190 -10.08116 -10.07879 -10.07738 -10.07432
 Alpha  occ. eigenvalues --  -10.07166 -10.06824 -10.06767 -10.06739 -10.06619
 Alpha  occ. eigenvalues --  -10.06323 -10.06320 -10.06224 -10.05544  -7.97038
 Alpha  occ. eigenvalues --   -7.88869  -5.98987  -5.98883  -5.98305  -5.91068
 Alpha  occ. eigenvalues --   -5.90633  -5.89904  -1.16349  -1.15949  -1.15763
 Alpha  occ. eigenvalues --   -1.14702  -1.10658  -1.08215  -1.02949  -1.00296
 Alpha  occ. eigenvalues --   -0.98429  -0.97375  -0.96785  -0.96292  -0.95223
 Alpha  occ. eigenvalues --   -0.92199  -0.90078  -0.89438  -0.88292  -0.87973
 Alpha  occ. eigenvalues --   -0.87544  -0.87358  -0.86862  -0.86379  -0.85894
 Alpha  occ. eigenvalues --   -0.85615  -0.83756  -0.81830  -0.77859  -0.77590
 Alpha  occ. eigenvalues --   -0.76494  -0.76271  -0.75921  -0.75046  -0.74779
 Alpha  occ. eigenvalues --   -0.74298  -0.73972  -0.72832  -0.71525  -0.70966
 Alpha  occ. eigenvalues --   -0.68887  -0.68669  -0.68292  -0.68004  -0.67661
 Alpha  occ. eigenvalues --   -0.67258  -0.66851  -0.66185  -0.64869  -0.63359
 Alpha  occ. eigenvalues --   -0.63076  -0.62479  -0.61684  -0.61407  -0.60868
 Alpha  occ. eigenvalues --   -0.59781  -0.59723  -0.59463  -0.58854  -0.58372
 Alpha  occ. eigenvalues --   -0.58281  -0.57673  -0.56850  -0.56664  -0.56534
 Alpha  occ. eigenvalues --   -0.56452  -0.56270  -0.55869  -0.55690  -0.55438
 Alpha  occ. eigenvalues --   -0.55228  -0.54918  -0.54819  -0.54754  -0.54501
 Alpha  occ. eigenvalues --   -0.54271  -0.54000  -0.53646  -0.53136  -0.52635
 Alpha  occ. eigenvalues --   -0.52101  -0.51692  -0.51269  -0.50964  -0.50708
 Alpha  occ. eigenvalues --   -0.50261  -0.49939  -0.49536  -0.49451  -0.48595
 Alpha  occ. eigenvalues --   -0.48208  -0.47861  -0.47588  -0.47276  -0.46448
 Alpha  occ. eigenvalues --   -0.46307  -0.44933  -0.42944  -0.42457  -0.42056
 Alpha  occ. eigenvalues --   -0.41578  -0.41186  -0.40728  -0.40298  -0.39842
 Alpha  occ. eigenvalues --   -0.39294  -0.38817  -0.38329  -0.36934  -0.34123
 Alpha  occ. eigenvalues --   -0.32602
 Alpha virt. eigenvalues --   -0.10313  -0.09465  -0.08837  -0.07718  -0.06533
 Alpha virt. eigenvalues --   -0.06281  -0.06204  -0.05874  -0.05533  -0.04908
 Alpha virt. eigenvalues --   -0.04296  -0.04192  -0.02671  -0.02557  -0.01869

  Beta  occ. eigenvalues --  -88.38011 -88.29663 -18.96638 -18.96254 -18.96139
  Beta  occ. eigenvalues --  -18.94840 -14.24175 -14.20830 -10.14300 -10.14046
  Beta  occ. eigenvalues --  -10.13904 -10.13793 -10.13397 -10.13186 -10.12494
  Beta  occ. eigenvalues --  -10.12437 -10.12077 -10.11868 -10.11845 -10.10921
  Beta  occ. eigenvalues --  -10.10281 -10.09734 -10.09722 -10.09552 -10.09531
  Beta  occ. eigenvalues --  -10.09071 -10.08593 -10.08389 -10.08378 -10.08280
  Beta  occ. eigenvalues --  -10.08141 -10.08116 -10.07899 -10.07752 -10.07450
  Beta  occ. eigenvalues --  -10.07182 -10.06822 -10.06762 -10.06741 -10.06618
  Beta  occ. eigenvalues --  -10.06323 -10.06320 -10.06224 -10.05544  -7.97028
  Beta  occ. eigenvalues --   -7.88868  -5.98977  -5.98865  -5.98297  -5.91067
  Beta  occ. eigenvalues --   -5.90632  -5.89900  -1.16247  -1.15879  -1.15759
  Beta  occ. eigenvalues --   -1.14701  -1.10147  -1.08200  -1.02862  -1.00066
  Beta  occ. eigenvalues --   -0.98328  -0.97294  -0.96768  -0.96192  -0.95191
  Beta  occ. eigenvalues --   -0.92190  -0.89928  -0.89128  -0.88106  -0.87914
  Beta  occ. eigenvalues --   -0.87445  -0.87287  -0.86846  -0.86361  -0.85887
  Beta  occ. eigenvalues --   -0.85600  -0.83506  -0.81816  -0.77705  -0.77436
  Beta  occ. eigenvalues --   -0.76448  -0.76133  -0.75803  -0.74941  -0.74743
  Beta  occ. eigenvalues --   -0.74188  -0.73948  -0.72820  -0.71414  -0.70881
  Beta  occ. eigenvalues --   -0.68761  -0.68608  -0.68277  -0.67798  -0.67645
  Beta  occ. eigenvalues --   -0.67148  -0.66843  -0.66121  -0.64776  -0.63133
  Beta  occ. eigenvalues --   -0.62997  -0.62403  -0.61517  -0.61368  -0.60741
  Beta  occ. eigenvalues --   -0.59743  -0.59684  -0.59322  -0.58808  -0.58310
  Beta  occ. eigenvalues --   -0.58225  -0.57617  -0.56814  -0.56648  -0.56513
  Beta  occ. eigenvalues --   -0.56377  -0.56180  -0.55739  -0.55628  -0.55235
  Beta  occ. eigenvalues --   -0.55137  -0.54911  -0.54724  -0.54548  -0.54481
  Beta  occ. eigenvalues --   -0.54065  -0.53891  -0.53618  -0.53052  -0.52505
  Beta  occ. eigenvalues --   -0.51915  -0.51645  -0.51207  -0.50823  -0.50625
  Beta  occ. eigenvalues --   -0.50037  -0.49902  -0.49517  -0.49163  -0.48576
  Beta  occ. eigenvalues --   -0.48132  -0.47817  -0.47580  -0.47241  -0.46446
  Beta  occ. eigenvalues --   -0.45694  -0.44873  -0.42642  -0.42268  -0.41670
  Beta  occ. eigenvalues --   -0.41385  -0.41047  -0.40387  -0.40216  -0.39744
  Beta  occ. eigenvalues --   -0.38949  -0.37905  -0.36933  -0.33143  -0.32346
  Beta virt. eigenvalues --   -0.20823  -0.10086  -0.09261  -0.08532  -0.07558
  Beta virt. eigenvalues --   -0.06378  -0.06001  -0.05888  -0.05708  -0.05302
  Beta virt. eigenvalues --   -0.04852  -0.04252  -0.04172  -0.02576  -0.02243

 Mulliken charges and spin densities:
               1          2
     1  C   -0.230655   0.057137
     2  C    0.090415   0.445187
     3  S   -0.047341   0.002464
     4  C   -0.301588   0.007236
     5  C    0.073323  -0.018872
     6  C   -0.289078  -0.001253
     7  C   -0.013690   0.021500
     8  C   -0.044273   0.006923
     9  H    0.147706   0.001858
    10  C   -0.178581   0.018991
    11  C   -0.032754   0.003388
    12  C   -0.079601  -0.000532
    13  C    0.027435   0.000456
    14  H    0.236535  -0.000068
    15  H    0.145984  -0.000181
    16  H    0.176918   0.000078
    17  C   -0.143201   0.013149
    18  H    0.181316   0.014799
    19  H    0.132321  -0.000053
    20  H    0.165221   0.008881
    21  H    0.176279  -0.000352
    22  S    0.261474   0.013065
    23  N    0.033648   0.005420
    24  C   -0.288263  -0.000147
    25  C    0.037942   0.000563
    26  C   -0.026833   0.000634
    27  C   -0.215898  -0.000237
    28  C   -0.173537  -0.000361
    29  C    0.137958   0.000555
    30  H    0.125752  -0.000032
    31  H    0.128044  -0.000030
    32  H    0.133493   0.000024
    33  H    0.122135   0.000017
    34  C   -0.086261  -0.000446
    35  C   -0.091061   0.002493
    36  C   -0.131167   0.000184
    37  C   -0.136575  -0.001350
    38  C   -0.176508   0.000405
    39  C    0.092303   0.001959
    40  H    0.136764   0.000009
    41  H    0.174270   0.000264
    42  H    0.121691   0.000052
    43  H    0.147102   0.000474
    44  N    0.058964   0.191674
    45  C   -0.088087  -0.006976
    46  C   -0.090809   0.038197
    47  C   -0.077360   0.032830
    48  C   -0.156567  -0.015267
    49  C   -0.191150  -0.016645
    50  C    0.119417   0.039525
    51  H    0.160234  -0.001753
    52  H    0.152463  -0.001235
    53  H    0.132579   0.001044
    54  H    0.141560   0.000778
    55  C   -0.125863  -0.006330
    56  C   -0.051778   0.045674
    57  C   -0.129698   0.049822
    58  C   -0.191492  -0.019515
    59  C   -0.122782  -0.021921
    60  C    0.113070   0.056457
    61  H    0.156343  -0.002107
    62  H    0.158867  -0.002373
    63  H    0.144405   0.000986
    64  H    0.149847   0.000922
    65  O   -0.248649   0.000558
    66  H    0.279379  -0.000002
    67  O   -0.222510   0.000157
    68  H    0.276421  -0.000004
    69  O   -0.215279   0.012962
    70  H    0.279902  -0.000309
    71  O   -0.211299   0.019079
    72  H    0.280709  -0.000479
 Sum of Mulliken charges =   1.00000   1.00000

 Dipole moment (field-independent basis, Debye):
    X=             -1.5921    Y=              2.5374    Z=              4.7910  Tot=              5.6504
 Quadrupole moment (field-independent basis, Debye-Ang):
   XX=           -119.5410   YY=           -198.9695   ZZ=           -255.3397
   XY=             14.2803   XZ=              2.7644   YZ=             -2.7681

 Normal termination of Gaussian 16 at Fri Jan 22 05:24:08 2021.
