 Gaussian 16, Revision A.03,
 Gaussian 16:  EM64L-G16RevA.03 25-Dec-2016

 ----------------------------------------------------------------------
 #P LC-wHPBE/TZVP iop(3/107=0168400000, 3/108=0168400000) scf=(conver=6
 ,fermi,ndamp=35,noincfock,novaracc,vshift=500,xqc)
 ----------------------------------------------------------------------

 ----------------
 H28 C36 S2 N2 O4
 ----------------
 Symbolic Z-matrix:
 Charge =  1 Multiplicity = 2

                         Standard orientation:
 ---------------------------------------------------------------------
 Center     Atomic      Atomic             Coordinates (Angstroms)
 Number     Number       Type             X           Y           Z
 ---------------------------------------------------------------------
      1          6           0       -1.748928    0.489907   -0.452051
      2          6           0       -0.626174    1.279763   -0.152570
      3         16           0        1.952753    5.388628   -0.812439
      4          6           0       -0.882312    2.170069    0.820725
      5          6           0        1.932708    2.897266    0.476539
      6          6           0        2.566514    3.761438   -0.418550
      7          6           0       -2.975354    0.631957    0.195801
      8          6           0       -2.049066    2.386893    1.545961
      9          1           0        0.246316    4.468801    0.586079
     10          6           0        2.384401    1.613824    0.700024
     11          6           0        3.673888    3.269502   -1.095477
     12          6           0        4.135912    1.984797   -0.893895
     13          6           0        3.494497    1.125461    0.002977
     14          1           0        1.857267    0.971131    1.395345
     15          1           0        4.176334    3.912174   -1.811785
     16          1           0        4.992977    1.632150   -1.456718
     17          6           0       -3.122467    1.590215    1.210611
     18          1           0       -1.688273   -0.276733   -1.226088
     19          1           0        2.539000    6.051116    0.206249
     20          1           0       -2.132551    3.120151    2.347153
     21          1           0       -4.068236    1.688167    1.734116
     22         16           0        0.491419    3.391365    1.378930
     23          7           0        3.940024   -0.175839    0.195205
     24          6           0        5.265040   -0.539150   -0.184549
     25          6           0        5.479402   -1.520085   -1.147894
     26          6           0        6.360048    0.068673    0.412912
     27          6           0        6.761446   -1.889048   -1.505778
     28          6           0        7.649207   -0.280692    0.044528
     29          6           0        7.852726   -1.265560   -0.913210
     30          1           0        4.624132   -2.002234   -1.612555
     31          1           0        6.198832    0.830082    1.170918
     32          1           0        6.936355   -2.656092   -2.253454
     33          1           0        8.499101    0.206598    0.518215
     34          6           0        3.067884   -1.217797    0.624973
     35          6           0        3.533169   -2.175669    1.516644
     36          6           0        1.768428   -1.324352    0.133595
     37          6           0        2.723890   -3.230889    1.904642
     38          6           0        0.952027   -2.363639    0.537000
     39          6           0        1.429133   -3.326131    1.415171
     40          1           0        4.545758   -2.102962    1.902377
     41          1           0        1.364259   -0.566763   -0.534909
     42          1           0        3.106488   -3.978127    2.597301
     43          1           0       -0.063643   -2.437107    0.162477
     44          7           0       -4.071583   -0.199288   -0.137893
     45          6           0       -5.379657    0.330758   -0.192504
     46          6           0       -6.464072   -0.381862    0.308117
     47          6           0       -5.615898    1.583782   -0.758482
     48          6           0       -7.748035    0.135409    0.237366
     49          6           0       -6.890741    2.113870   -0.808775
     50          6           0       -7.966332    1.388715   -0.314728
     51          1           0       -6.301182   -1.359246    0.752201
     52          1           0       -4.779992    2.148147   -1.160920
     53          1           0       -8.582756   -0.442294    0.630527
     54          1           0       -7.071352    3.090185   -1.247847
     55          6           0       -3.863071   -1.579858   -0.373004
     56          6           0       -4.488297   -2.228332   -1.435995
     57          6           0       -3.028002   -2.320518    0.455690
     58          6           0       -4.288516   -3.577498   -1.662294
     59          6           0       -2.802155   -3.666597    0.218956
     60          6           0       -3.435225   -4.300687   -0.840523
     61          1           0       -5.141183   -1.661753   -2.093518
     62          1           0       -2.533592   -1.828985    1.288374
     63          1           0       -4.774148   -4.081779   -2.492022
     64          1           0       -2.125658   -4.220184    0.867724
     65          8           0        0.584592   -4.343911    1.769173
     66          1           0        1.030590   -4.920168    2.399784
     67          8           0        9.095256   -1.661445   -1.308356
     68          1           0        9.763222   -1.159512   -0.827959
     69          8           0       -9.209724    1.953542   -0.400297
     70          1           0       -9.859516    1.347058   -0.028653
     71          8           0       -3.254007   -5.627948   -1.116747
     72          1           0       -2.609433   -5.991357   -0.499352
 ---------------------------------------------------------------------

 SCF Done:  E(ULC-wHPBE) =  -2593.72740925     A.U. after   33 cycles
 SCF Done:  E(ULC-wHPBE) =  -2593.72756952     a.u. after    2 cycles

 The electronic state is 2-A.
 Alpha  occ. eigenvalues --  -88.38065 -88.29702 -18.96718 -18.96318 -18.96173
 Alpha  occ. eigenvalues --  -18.94873 -14.24609 -14.20877 -10.14346 -10.14126
 Alpha  occ. eigenvalues --  -10.14027 -10.13898 -10.13480 -10.13231 -10.12533
 Alpha  occ. eigenvalues --  -10.12476 -10.12092 -10.11882 -10.11879 -10.10982
 Alpha  occ. eigenvalues --  -10.10315 -10.09849 -10.09802 -10.09587 -10.09573
 Alpha  occ. eigenvalues --  -10.09128 -10.09114 -10.08692 -10.08472 -10.08367
 Alpha  occ. eigenvalues --  -10.08218 -10.08154 -10.07907 -10.07766 -10.07459
 Alpha  occ. eigenvalues --  -10.07194 -10.06861 -10.06804 -10.06775 -10.06655
 Alpha  occ. eigenvalues --  -10.06359 -10.06356 -10.06259 -10.05579  -7.97083
 Alpha  occ. eigenvalues --   -7.88908  -5.99031  -5.98927  -5.98349  -5.91106
 Alpha  occ. eigenvalues --   -5.90670  -5.89941  -1.16376  -1.15976  -1.15797
 Alpha  occ. eigenvalues --   -1.14737  -1.10688  -1.08253  -1.02993  -1.00338
 Alpha  occ. eigenvalues --   -0.98459  -0.97411  -0.96822  -0.96329  -0.95262
 Alpha  occ. eigenvalues --   -0.92239  -0.90116  -0.89477  -0.88324  -0.88007
 Alpha  occ. eigenvalues --   -0.87574  -0.87392  -0.86899  -0.86416  -0.85931
 Alpha  occ. eigenvalues --   -0.85652  -0.83788  -0.81867  -0.77891  -0.77622
 Alpha  occ. eigenvalues --   -0.76528  -0.76304  -0.75954  -0.75076  -0.74812
 Alpha  occ. eigenvalues --   -0.74329  -0.74006  -0.72866  -0.71556  -0.70999
 Alpha  occ. eigenvalues --   -0.68915  -0.68695  -0.68325  -0.68035  -0.67694
 Alpha  occ. eigenvalues --   -0.67284  -0.66883  -0.66216  -0.64901  -0.63388
 Alpha  occ. eigenvalues --   -0.63110  -0.62512  -0.61714  -0.61440  -0.60893
 Alpha  occ. eigenvalues --   -0.59813  -0.59756  -0.59495  -0.58887  -0.58396
 Alpha  occ. eigenvalues --   -0.58304  -0.57705  -0.56878  -0.56693  -0.56563
 Alpha  occ. eigenvalues --   -0.56476  -0.56295  -0.55898  -0.55721  -0.55462
 Alpha  occ. eigenvalues --   -0.55256  -0.54948  -0.54847  -0.54784  -0.54533
 Alpha  occ. eigenvalues --   -0.54301  -0.54024  -0.53677  -0.53166  -0.52661
 Alpha  occ. eigenvalues --   -0.52127  -0.51722  -0.51291  -0.50993  -0.50737
 Alpha  occ. eigenvalues --   -0.50285  -0.49968  -0.49565  -0.49473  -0.48624
 Alpha  occ. eigenvalues --   -0.48228  -0.47881  -0.47618  -0.47304  -0.46475
 Alpha  occ. eigenvalues --   -0.46333  -0.44962  -0.42971  -0.42483  -0.42081
 Alpha  occ. eigenvalues --   -0.41596  -0.41208  -0.40749  -0.40324  -0.39869
 Alpha  occ. eigenvalues --   -0.39327  -0.38843  -0.38349  -0.36957  -0.34136
 Alpha  occ. eigenvalues --   -0.32622
 Alpha virt. eigenvalues --   -0.10304  -0.09453  -0.08824  -0.07704  -0.06517
 Alpha virt. eigenvalues --   -0.06265  -0.06184  -0.05857  -0.05510  -0.04893
 Alpha virt. eigenvalues --   -0.04282  -0.04176  -0.02651  -0.02542  -0.01852

  Beta  occ. eigenvalues --  -88.38056 -88.29700 -18.96663 -18.96280 -18.96172
  Beta  occ. eigenvalues --  -18.94873 -14.24200 -14.20865 -10.14341 -10.14085
  Beta  occ. eigenvalues --  -10.13949 -10.13821 -10.13425 -10.13226 -10.12534
  Beta  occ. eigenvalues --  -10.12473 -10.12105 -10.11895 -10.11881 -10.10961
  Beta  occ. eigenvalues --  -10.10318 -10.09772 -10.09763 -10.09588 -10.09571
  Beta  occ. eigenvalues --  -10.09110 -10.08622 -10.08441 -10.08406 -10.08308
  Beta  occ. eigenvalues --  -10.08169 -10.08155 -10.07927 -10.07779 -10.07478
  Beta  occ. eigenvalues --  -10.07210 -10.06858 -10.06799 -10.06776 -10.06654
  Beta  occ. eigenvalues --  -10.06358 -10.06356 -10.06260 -10.05580  -7.97073
  Beta  occ. eigenvalues --   -7.88906  -5.99021  -5.98910  -5.98341  -5.91105
  Beta  occ. eigenvalues --   -5.90669  -5.89937  -1.16275  -1.15907  -1.15794
  Beta  occ. eigenvalues --   -1.14736  -1.10178  -1.08239  -1.02906  -1.00108
  Beta  occ. eigenvalues --   -0.98358  -0.97330  -0.96805  -0.96229  -0.95230
  Beta  occ. eigenvalues --   -0.92230  -0.89965  -0.89164  -0.88138  -0.87949
  Beta  occ. eigenvalues --   -0.87475  -0.87321  -0.86883  -0.86398  -0.85923
  Beta  occ. eigenvalues --   -0.85637  -0.83538  -0.81853  -0.77736  -0.77467
  Beta  occ. eigenvalues --   -0.76482  -0.76168  -0.75836  -0.74972  -0.74776
  Beta  occ. eigenvalues --   -0.74218  -0.73982  -0.72854  -0.71445  -0.70913
  Beta  occ. eigenvalues --   -0.68788  -0.68634  -0.68309  -0.67828  -0.67678
  Beta  occ. eigenvalues --   -0.67174  -0.66875  -0.66153  -0.64809  -0.63165
  Beta  occ. eigenvalues --   -0.63028  -0.62435  -0.61547  -0.61399  -0.60767
  Beta  occ. eigenvalues --   -0.59775  -0.59717  -0.59355  -0.58841  -0.58335
  Beta  occ. eigenvalues --   -0.58249  -0.57649  -0.56843  -0.56676  -0.56541
  Beta  occ. eigenvalues --   -0.56401  -0.56205  -0.55769  -0.55658  -0.55259
  Beta  occ. eigenvalues --   -0.55165  -0.54941  -0.54752  -0.54577  -0.54512
  Beta  occ. eigenvalues --   -0.54095  -0.53917  -0.53649  -0.53083  -0.52533
  Beta  occ. eigenvalues --   -0.51940  -0.51674  -0.51229  -0.50852  -0.50655
  Beta  occ. eigenvalues --   -0.50062  -0.49930  -0.49546  -0.49185  -0.48605
  Beta  occ. eigenvalues --   -0.48153  -0.47837  -0.47609  -0.47268  -0.46473
  Beta  occ. eigenvalues --   -0.45720  -0.44902  -0.42669  -0.42295  -0.41696
  Beta  occ. eigenvalues --   -0.41403  -0.41067  -0.40409  -0.40240  -0.39768
  Beta  occ. eigenvalues --   -0.38973  -0.37920  -0.36955  -0.33156  -0.32364
  Beta virt. eigenvalues --   -0.20818  -0.10076  -0.09249  -0.08519  -0.07544
  Beta virt. eigenvalues --   -0.06363  -0.05984  -0.05870  -0.05689  -0.05279
  Beta virt. eigenvalues --   -0.04837  -0.04237  -0.04156  -0.02561  -0.02226

 Mulliken charges and spin densities:
               1          2
     1  C   -0.230554   0.057006
     2  C    0.090718   0.446545
     3  S   -0.047289   0.002458
     4  C   -0.301614   0.007020
     5  C    0.073165  -0.018872
     6  C   -0.289135  -0.001267
     7  C   -0.013756   0.021598
     8  C   -0.044315   0.007037
     9  H    0.147776   0.001851
    10  C   -0.178715   0.019000
    11  C   -0.032785   0.003402
    12  C   -0.079660  -0.000548
    13  C    0.027495   0.000458
    14  H    0.236637  -0.000066
    15  H    0.146065  -0.000181
    16  H    0.177012   0.000079
    17  C   -0.143158   0.012981
    18  H    0.181447   0.014846
    19  H    0.132326  -0.000054
    20  H    0.165314   0.008887
    21  H    0.176377  -0.000344
    22  S    0.261681   0.013108
    23  N    0.033472   0.005399
    24  C   -0.288265  -0.000147
    25  C    0.037945   0.000561
    26  C   -0.026815   0.000631
    27  C   -0.215979  -0.000237
    28  C   -0.173626  -0.000360
    29  C    0.137954   0.000552
    30  H    0.125811  -0.000032
    31  H    0.128096  -0.000030
    32  H    0.133545   0.000024
    33  H    0.122184   0.000017
    34  C   -0.086247  -0.000443
    35  C   -0.091084   0.002487
    36  C   -0.131201   0.000187
    37  C   -0.136646  -0.001348
    38  C   -0.176526   0.000405
    39  C    0.092263   0.001952
    40  H    0.136827   0.000009
    41  H    0.174312   0.000256
    42  H    0.121745   0.000052
    43  H    0.147160   0.000475
    44  N    0.058728   0.191397
    45  C   -0.088085  -0.007068
    46  C   -0.090839   0.038132
    47  C   -0.077391   0.032770
    48  C   -0.156665  -0.015274
    49  C   -0.191244  -0.016657
    50  C    0.119391   0.039418
    51  H    0.160276  -0.001749
    52  H    0.152464  -0.001232
    53  H    0.132596   0.001044
    54  H    0.141567   0.000778
    55  C   -0.125912  -0.006464
    56  C   -0.051777   0.045646
    57  C   -0.129748   0.049787
    58  C   -0.191589  -0.019549
    59  C   -0.122885  -0.021971
    60  C    0.113029   0.056375
    61  H    0.156387  -0.002105
    62  H    0.158875  -0.002371
    63  H    0.144420   0.000987
    64  H    0.149880   0.000924
    65  O   -0.248626   0.000555
    66  H    0.279381  -0.000002
    67  O   -0.222510   0.000156
    68  H    0.276421  -0.000004
    69  O   -0.215329   0.012898
    70  H    0.279885  -0.000307
    71  O   -0.211349   0.019010
    72  H    0.280689  -0.000477
 Sum of Mulliken charges =   1.00000   1.00000

 Dipole moment (field-independent basis, Debye):
    X=             -1.5745    Y=              2.5486    Z=              4.7939  Tot=              5.6530
 Quadrupole moment (field-independent basis, Debye-Ang):
   XX=           -119.6456   YY=           -198.9728   ZZ=           -255.3332
   XY=             14.2801   XZ=              2.7553   YZ=             -2.7672

 Normal termination of Gaussian 16 at Fri Jan 22 07:54:34 2021.
