 Gaussian 16, Revision A.03,
 Gaussian 16:  EM64L-G16RevA.03 25-Dec-2016

 ----------------------------------------------------------------------
 #P LC-wHPBE/TZVP iop(3/107=0221900000, 3/108=0221900000) scf=(conver=6
 ,fermi,ndamp=35,noincfock,novaracc,vshift=500,xqc)
 ----------------------------------------------------------------------

 ----------------
 H28 C36 S2 N2 O4
 ----------------
 Symbolic Z-matrix:
 Charge =  1 Multiplicity = 2

                         Standard orientation:
 ---------------------------------------------------------------------
 Center     Atomic      Atomic             Coordinates (Angstroms)
 Number     Number       Type             X           Y           Z
 ---------------------------------------------------------------------
      1          6           0       -1.748928    0.489907   -0.452051
      2          6           0       -0.626174    1.279763   -0.152570
      3         16           0        1.952753    5.388628   -0.812439
      4          6           0       -0.882312    2.170069    0.820725
      5          6           0        1.932708    2.897266    0.476539
      6          6           0        2.566514    3.761438   -0.418550
      7          6           0       -2.975354    0.631957    0.195801
      8          6           0       -2.049066    2.386893    1.545961
      9          1           0        0.246316    4.468801    0.586079
     10          6           0        2.384401    1.613824    0.700024
     11          6           0        3.673888    3.269502   -1.095477
     12          6           0        4.135912    1.984797   -0.893895
     13          6           0        3.494497    1.125461    0.002977
     14          1           0        1.857267    0.971131    1.395345
     15          1           0        4.176334    3.912174   -1.811785
     16          1           0        4.992977    1.632150   -1.456718
     17          6           0       -3.122467    1.590215    1.210611
     18          1           0       -1.688273   -0.276733   -1.226088
     19          1           0        2.539000    6.051116    0.206249
     20          1           0       -2.132551    3.120151    2.347153
     21          1           0       -4.068236    1.688167    1.734116
     22         16           0        0.491419    3.391365    1.378930
     23          7           0        3.940024   -0.175839    0.195205
     24          6           0        5.265040   -0.539150   -0.184549
     25          6           0        5.479402   -1.520085   -1.147894
     26          6           0        6.360048    0.068673    0.412912
     27          6           0        6.761446   -1.889048   -1.505778
     28          6           0        7.649207   -0.280692    0.044528
     29          6           0        7.852726   -1.265560   -0.913210
     30          1           0        4.624132   -2.002234   -1.612555
     31          1           0        6.198832    0.830082    1.170918
     32          1           0        6.936355   -2.656092   -2.253454
     33          1           0        8.499101    0.206598    0.518215
     34          6           0        3.067884   -1.217797    0.624973
     35          6           0        3.533169   -2.175669    1.516644
     36          6           0        1.768428   -1.324352    0.133595
     37          6           0        2.723890   -3.230889    1.904642
     38          6           0        0.952027   -2.363639    0.537000
     39          6           0        1.429133   -3.326131    1.415171
     40          1           0        4.545758   -2.102962    1.902377
     41          1           0        1.364259   -0.566763   -0.534909
     42          1           0        3.106488   -3.978127    2.597301
     43          1           0       -0.063643   -2.437107    0.162477
     44          7           0       -4.071583   -0.199288   -0.137893
     45          6           0       -5.379657    0.330758   -0.192504
     46          6           0       -6.464072   -0.381862    0.308117
     47          6           0       -5.615898    1.583782   -0.758482
     48          6           0       -7.748035    0.135409    0.237366
     49          6           0       -6.890741    2.113870   -0.808775
     50          6           0       -7.966332    1.388715   -0.314728
     51          1           0       -6.301182   -1.359246    0.752201
     52          1           0       -4.779992    2.148147   -1.160920
     53          1           0       -8.582756   -0.442294    0.630527
     54          1           0       -7.071352    3.090185   -1.247847
     55          6           0       -3.863071   -1.579858   -0.373004
     56          6           0       -4.488297   -2.228332   -1.435995
     57          6           0       -3.028002   -2.320518    0.455690
     58          6           0       -4.288516   -3.577498   -1.662294
     59          6           0       -2.802155   -3.666597    0.218956
     60          6           0       -3.435225   -4.300687   -0.840523
     61          1           0       -5.141183   -1.661753   -2.093518
     62          1           0       -2.533592   -1.828985    1.288374
     63          1           0       -4.774148   -4.081779   -2.492022
     64          1           0       -2.125658   -4.220184    0.867724
     65          8           0        0.584592   -4.343911    1.769173
     66          1           0        1.030590   -4.920168    2.399784
     67          8           0        9.095256   -1.661445   -1.308356
     68          1           0        9.763222   -1.159512   -0.827959
     69          8           0       -9.209724    1.953542   -0.400297
     70          1           0       -9.859516    1.347058   -0.028653
     71          8           0       -3.254007   -5.627948   -1.116747
     72          1           0       -2.609433   -5.991357   -0.499352
 ---------------------------------------------------------------------

 SCF Done:  E(ULC-wHPBE) =  -2593.84555353     A.U. after   33 cycles
 SCF Done:  E(ULC-wHPBE) =  -2593.84796983     a.u. after    6 cycles

 The electronic state is 2-A.
 Alpha  occ. eigenvalues --  -88.43463 -88.33833 -18.99316 -18.98190 -18.97775
 Alpha  occ. eigenvalues --  -18.97470 -14.24705 -14.24393 -10.19350 -10.19078
 Alpha  occ. eigenvalues --  -10.17928 -10.17868 -10.17687 -10.17000 -10.16149
 Alpha  occ. eigenvalues --  -10.15555 -10.15437 -10.15035 -10.14716 -10.14171
 Alpha  occ. eigenvalues --  -10.14108 -10.14030 -10.13491 -10.13427 -10.13311
 Alpha  occ. eigenvalues --  -10.13211 -10.13115 -10.12454 -10.10836 -10.10597
 Alpha  occ. eigenvalues --  -10.10414 -10.10371 -10.10041 -10.10016 -10.09967
 Alpha  occ. eigenvalues --  -10.09868 -10.09589 -10.09575 -10.09515 -10.09356
 Alpha  occ. eigenvalues --  -10.09164 -10.09163 -10.08799 -10.08677  -8.02473
 Alpha  occ. eigenvalues --   -7.93093  -6.04352  -6.04270  -6.03665  -5.95233
 Alpha  occ. eigenvalues --   -5.94782  -5.94044  -1.19136  -1.18239  -1.17685
 Alpha  occ. eigenvalues --   -1.17362  -1.12402  -1.11946  -1.08097  -1.05051
 Alpha  occ. eigenvalues --   -1.01462  -1.00666  -0.99868  -0.99399  -0.98442
 Alpha  occ. eigenvalues --   -0.96552  -0.94321  -0.93720  -0.91661  -0.90783
 Alpha  occ. eigenvalues --   -0.90274  -0.89846  -0.89631  -0.89562  -0.89237
 Alpha  occ. eigenvalues --   -0.88904  -0.85890  -0.85516  -0.81247  -0.80894
 Alpha  occ. eigenvalues --   -0.79875  -0.79288  -0.78392  -0.78029  -0.77571
 Alpha  occ. eigenvalues --   -0.76714  -0.76307  -0.75987  -0.74779  -0.73513
 Alpha  occ. eigenvalues --   -0.71815  -0.71544  -0.70981  -0.70078  -0.69815
 Alpha  occ. eigenvalues --   -0.69755  -0.69251  -0.68413  -0.67977  -0.66678
 Alpha  occ. eigenvalues --   -0.66203  -0.65944  -0.64912  -0.63692  -0.63257
 Alpha  occ. eigenvalues --   -0.63218  -0.62720  -0.62435  -0.61742  -0.61304
 Alpha  occ. eigenvalues --   -0.60134  -0.59856  -0.59671  -0.59293  -0.59181
 Alpha  occ. eigenvalues --   -0.59005  -0.58493  -0.58290  -0.57986  -0.57729
 Alpha  occ. eigenvalues --   -0.57545  -0.57249  -0.57169  -0.56963  -0.56821
 Alpha  occ. eigenvalues --   -0.56393  -0.56282  -0.55963  -0.55530  -0.55098
 Alpha  occ. eigenvalues --   -0.54634  -0.54229  -0.53897  -0.53170  -0.52967
 Alpha  occ. eigenvalues --   -0.52541  -0.51944  -0.51545  -0.51050  -0.50562
 Alpha  occ. eigenvalues --   -0.50253  -0.49967  -0.49217  -0.48769  -0.48456
 Alpha  occ. eigenvalues --   -0.48420  -0.48126  -0.46999  -0.46278  -0.45564
 Alpha  occ. eigenvalues --   -0.44614  -0.42717  -0.42375  -0.42151  -0.41830
 Alpha  occ. eigenvalues --   -0.41484  -0.41070  -0.39220  -0.38423  -0.34851
 Alpha  occ. eigenvalues --   -0.33683
 Alpha virt. eigenvalues --   -0.10759  -0.09514  -0.08711  -0.07663  -0.06233
 Alpha virt. eigenvalues --   -0.05839  -0.04585  -0.03878  -0.03779  -0.03500
 Alpha virt. eigenvalues --   -0.03160  -0.02562  -0.02274  -0.01911  -0.00677

  Beta  occ. eigenvalues --  -88.43443 -88.33832 -18.99314 -18.98190 -18.97765
  Beta  occ. eigenvalues --  -18.97466 -14.24694 -14.24308 -10.19337 -10.19069
  Beta  occ. eigenvalues --  -10.17821 -10.17679 -10.17001 -10.16487 -10.16146
  Beta  occ. eigenvalues --  -10.15555 -10.15362 -10.15017 -10.14710 -10.14173
  Beta  occ. eigenvalues --  -10.14108 -10.14030 -10.13485 -10.13470 -10.13312
  Beta  occ. eigenvalues --  -10.13220 -10.13117 -10.12455 -10.10826 -10.10594
  Beta  occ. eigenvalues --  -10.10416 -10.10370 -10.10040 -10.10015 -10.09949
  Beta  occ. eigenvalues --  -10.09869 -10.09572 -10.09568 -10.09506 -10.09364
  Beta  occ. eigenvalues --  -10.09166 -10.09163 -10.08806 -10.08680  -8.02451
  Beta  occ. eigenvalues --   -7.93092  -6.04328  -6.04236  -6.03641  -5.95233
  Beta  occ. eigenvalues --   -5.94782  -5.94043  -1.19134  -1.18239  -1.17665
  Beta  occ. eigenvalues --   -1.17356  -1.12386  -1.11805  -1.07936  -1.04681
  Beta  occ. eigenvalues --   -1.01372  -1.00657  -0.99849  -0.99388  -0.98364
  Beta  occ. eigenvalues --   -0.96543  -0.93815  -0.93342  -0.91535  -0.90764
  Beta  occ. eigenvalues --   -0.90261  -0.89804  -0.89627  -0.89553  -0.89191
  Beta  occ. eigenvalues --   -0.88889  -0.85854  -0.85467  -0.80868  -0.80681
  Beta  occ. eigenvalues --   -0.79842  -0.79179  -0.78376  -0.77979  -0.77533
  Beta  occ. eigenvalues --   -0.76624  -0.76216  -0.75927  -0.74761  -0.73162
  Beta  occ. eigenvalues --   -0.71804  -0.71246  -0.70926  -0.70063  -0.69768
  Beta  occ. eigenvalues --   -0.69720  -0.69179  -0.68321  -0.67886  -0.66622
  Beta  occ. eigenvalues --   -0.66025  -0.65635  -0.64890  -0.63439  -0.63232
  Beta  occ. eigenvalues --   -0.63168  -0.62700  -0.62337  -0.61667  -0.61136
  Beta  occ. eigenvalues --   -0.60094  -0.59755  -0.59661  -0.59263  -0.59113
  Beta  occ. eigenvalues --   -0.58875  -0.58357  -0.58055  -0.57950  -0.57562
  Beta  occ. eigenvalues --   -0.57399  -0.57227  -0.57075  -0.56810  -0.56750
  Beta  occ. eigenvalues --   -0.56331  -0.56243  -0.55841  -0.55457  -0.54986
  Beta  occ. eigenvalues --   -0.54586  -0.54030  -0.53849  -0.53150  -0.52857
  Beta  occ. eigenvalues --   -0.52529  -0.51887  -0.51531  -0.50961  -0.50550
  Beta  occ. eigenvalues --   -0.50117  -0.49922  -0.49203  -0.48709  -0.48420
  Beta  occ. eigenvalues --   -0.48240  -0.47869  -0.45808  -0.45527  -0.44564
  Beta  occ. eigenvalues --   -0.42728  -0.42261  -0.42180  -0.41788  -0.41469
  Beta  occ. eigenvalues --   -0.41048  -0.39216  -0.38356  -0.34857  -0.33525
  Beta virt. eigenvalues --   -0.19484  -0.10309  -0.09215  -0.08431  -0.07244
  Beta virt. eigenvalues --   -0.06026  -0.05584  -0.04549  -0.03787  -0.03688
  Beta virt. eigenvalues --   -0.03491  -0.03093  -0.02517  -0.02162  -0.01820

 Mulliken charges and spin densities:
               1          2
     1  C   -0.205590  -0.006763
     2  C    0.203176   0.850888
     3  S   -0.036593   0.000916
     4  C   -0.319016  -0.063372
     5  C    0.049283  -0.016448
     6  C   -0.292381   0.000414
     7  C   -0.033427   0.056152
     8  C   -0.046654   0.048754
     9  H    0.155350  -0.001233
    10  C   -0.228441   0.016252
    11  C   -0.033416   0.004386
    12  C   -0.083617  -0.000907
    13  C    0.044267  -0.000444
    14  H    0.253597   0.001600
    15  H    0.158383  -0.000245
    16  H    0.189769   0.000108
    17  C   -0.129366  -0.043710
    18  H    0.206878   0.028161
    19  H    0.135206   0.000009
    20  H    0.178696   0.008922
    21  H    0.190539   0.001877
    22  S    0.298216   0.034606
    23  N    0.015021   0.004942
    24  C   -0.287991  -0.000106
    25  C    0.035112   0.000536
    26  C   -0.028860   0.000505
    27  C   -0.221711  -0.000237
    28  C   -0.180118  -0.000405
    29  C    0.136010   0.000484
    30  H    0.134208  -0.000036
    31  H    0.134885  -0.000026
    32  H    0.141869   0.000024
    33  H    0.129478   0.000015
    34  C   -0.080191   0.000605
    35  C   -0.093918   0.002821
    36  C   -0.144730   0.001122
    37  C   -0.141191  -0.001607
    38  C   -0.166239   0.000787
    39  C    0.081746   0.001910
    40  H    0.145717   0.000078
    41  H    0.169878  -0.000614
    42  H    0.130318   0.000062
    43  H    0.160595   0.000515
    44  N    0.002345   0.038636
    45  C   -0.081515  -0.001580
    46  C   -0.099126   0.005789
    47  C   -0.090111   0.003833
    48  C   -0.167250  -0.002291
    49  C   -0.200729  -0.002958
    50  C    0.112271   0.004177
    51  H    0.161992  -0.000231
    52  H    0.143269   0.000008
    53  H    0.130953   0.000281
    54  H    0.137944   0.000123
    55  C   -0.124279  -0.007531
    56  C   -0.059232   0.012992
    57  C   -0.148079   0.014251
    58  C   -0.201721  -0.006966
    59  C   -0.136094  -0.007667
    60  C    0.103319   0.013649
    61  H    0.156777  -0.000575
    62  H    0.150059  -0.000620
    63  H    0.141706   0.000318
    64  H    0.147934   0.000295
    65  O   -0.241575   0.000449
    66  H    0.280233  -0.000000
    67  O   -0.221993   0.000107
    68  H    0.277253  -0.000003
    69  O   -0.227107   0.001007
    70  H    0.276511  -0.000021
    71  O   -0.223930   0.003316
    72  H    0.275428  -0.000083
 Sum of Mulliken charges =   1.00000   1.00000

 Dipole moment (field-independent basis, Debye):
    X=              3.4364    Y=              5.0287    Z=              5.3188  Tot=              8.0862
 Quadrupole moment (field-independent basis, Debye-Ang):
   XX=           -142.5291   YY=           -200.1190   ZZ=           -254.4731
   XY=             12.8013   XZ=              0.1652   YZ=             -3.2081

 Normal termination of Gaussian 16 at Thu Jan 21 10:30:35 2021.
