 Gaussian 16, Revision A.03,
 Gaussian 16:  EM64L-G16RevA.03 25-Dec-2016

 ----------------------------------------------------------------------
 #P LC-wHPBE/TZVP iop(3/107=0115700000, 3/108=0115700000) scf=(conver=6
 ,fermi,ndamp=35,noincfock,novaracc,vshift=500,xqc)
 ----------------------------------------------------------------------

 ----------------
 H28 C36 S2 N2 O4
 ----------------
 Symbolic Z-matrix:
 Charge =  0 Multiplicity = 1

                         Standard orientation:
 ---------------------------------------------------------------------
 Center     Atomic      Atomic             Coordinates (Angstroms)
 Number     Number       Type             X           Y           Z
 ---------------------------------------------------------------------
      1          6           0       -1.748928    0.489907   -0.452051
      2          6           0       -0.626174    1.279763   -0.152570
      3         16           0        1.952753    5.388628   -0.812439
      4          6           0       -0.882312    2.170069    0.820725
      5          6           0        1.932708    2.897266    0.476539
      6          6           0        2.566514    3.761438   -0.418550
      7          6           0       -2.975354    0.631957    0.195801
      8          6           0       -2.049066    2.386893    1.545961
      9          1           0        0.246316    4.468801    0.586079
     10          6           0        2.384401    1.613824    0.700024
     11          6           0        3.673888    3.269502   -1.095477
     12          6           0        4.135912    1.984797   -0.893895
     13          6           0        3.494497    1.125461    0.002977
     14          1           0        1.857267    0.971131    1.395345
     15          1           0        4.176334    3.912174   -1.811785
     16          1           0        4.992977    1.632150   -1.456718
     17          6           0       -3.122467    1.590215    1.210611
     18          1           0       -1.688273   -0.276733   -1.226088
     19          1           0        2.539000    6.051116    0.206249
     20          1           0       -2.132551    3.120151    2.347153
     21          1           0       -4.068236    1.688167    1.734116
     22         16           0        0.491419    3.391365    1.378930
     23          7           0        3.940024   -0.175839    0.195205
     24          6           0        5.265040   -0.539150   -0.184549
     25          6           0        5.479402   -1.520085   -1.147894
     26          6           0        6.360048    0.068673    0.412912
     27          6           0        6.761446   -1.889048   -1.505778
     28          6           0        7.649207   -0.280692    0.044528
     29          6           0        7.852726   -1.265560   -0.913210
     30          1           0        4.624132   -2.002234   -1.612555
     31          1           0        6.198832    0.830082    1.170918
     32          1           0        6.936355   -2.656092   -2.253454
     33          1           0        8.499101    0.206598    0.518215
     34          6           0        3.067884   -1.217797    0.624973
     35          6           0        3.533169   -2.175669    1.516644
     36          6           0        1.768428   -1.324352    0.133595
     37          6           0        2.723890   -3.230889    1.904642
     38          6           0        0.952027   -2.363639    0.537000
     39          6           0        1.429133   -3.326131    1.415171
     40          1           0        4.545758   -2.102962    1.902377
     41          1           0        1.364259   -0.566763   -0.534909
     42          1           0        3.106488   -3.978127    2.597301
     43          1           0       -0.063643   -2.437107    0.162477
     44          7           0       -4.071583   -0.199288   -0.137893
     45          6           0       -5.379657    0.330758   -0.192504
     46          6           0       -6.464072   -0.381862    0.308117
     47          6           0       -5.615898    1.583782   -0.758482
     48          6           0       -7.748035    0.135409    0.237366
     49          6           0       -6.890741    2.113870   -0.808775
     50          6           0       -7.966332    1.388715   -0.314728
     51          1           0       -6.301182   -1.359246    0.752201
     52          1           0       -4.779992    2.148147   -1.160920
     53          1           0       -8.582756   -0.442294    0.630527
     54          1           0       -7.071352    3.090185   -1.247847
     55          6           0       -3.863071   -1.579858   -0.373004
     56          6           0       -4.488297   -2.228332   -1.435995
     57          6           0       -3.028002   -2.320518    0.455690
     58          6           0       -4.288516   -3.577498   -1.662294
     59          6           0       -2.802155   -3.666597    0.218956
     60          6           0       -3.435225   -4.300687   -0.840523
     61          1           0       -5.141183   -1.661753   -2.093518
     62          1           0       -2.533592   -1.828985    1.288374
     63          1           0       -4.774148   -4.081779   -2.492022
     64          1           0       -2.125658   -4.220184    0.867724
     65          8           0        0.584592   -4.343911    1.769173
     66          1           0        1.030590   -4.920168    2.399784
     67          8           0        9.095256   -1.661445   -1.308356
     68          1           0        9.763222   -1.159512   -0.827959
     69          8           0       -9.209724    1.953542   -0.400297
     70          1           0       -9.859516    1.347058   -0.028653
     71          8           0       -3.254007   -5.627948   -1.116747
     72          1           0       -2.609433   -5.991357   -0.499352
 ---------------------------------------------------------------------

 SCF Done:  E(RLC-wHPBE) =  -2593.81401356     A.U. after   22 cycles

 The electronic state is 1-A.
 Alpha  occ. eigenvalues --  -88.22626 -88.17667 -18.85981 -18.85205 -18.83801
 Alpha  occ. eigenvalues --  -18.83588 -14.09482 -14.06497 -10.02276 -10.01020
 Alpha  occ. eigenvalues --  -10.01008 -10.00859  -9.99975  -9.99720  -9.99557
 Alpha  occ. eigenvalues --   -9.99478  -9.98785  -9.97344  -9.97142  -9.96893
 Alpha  occ. eigenvalues --   -9.96767  -9.96741  -9.96736  -9.96696  -9.96409
 Alpha  occ. eigenvalues --   -9.96048  -9.96014  -9.95887  -9.95662  -9.95619
 Alpha  occ. eigenvalues --   -9.94727  -9.94588  -9.94523  -9.94436  -9.94143
 Alpha  occ. eigenvalues --   -9.94049  -9.93959  -9.93910  -9.93895  -9.93814
 Alpha  occ. eigenvalues --   -9.93675  -9.93175  -9.92060  -9.88476  -7.81673
 Alpha  occ. eigenvalues --   -7.76860  -5.83707  -5.83495  -5.82986  -5.79096
 Alpha  occ. eigenvalues --   -5.78676  -5.77923  -1.05709  -1.04708  -1.03383
 Alpha  occ. eigenvalues --   -1.03190  -0.96703  -0.93828  -0.89035  -0.86153
 Alpha  occ. eigenvalues --   -0.84942  -0.84068  -0.83971  -0.82844  -0.81012
 Alpha  occ. eigenvalues --   -0.79971  -0.76586  -0.76119  -0.75182  -0.74953
 Alpha  occ. eigenvalues --   -0.74330  -0.74205  -0.74070  -0.73527  -0.72547
 Alpha  occ. eigenvalues --   -0.71335  -0.70482  -0.68652  -0.65631  -0.64763
 Alpha  occ. eigenvalues --   -0.63952  -0.63408  -0.63144  -0.62718  -0.61561
 Alpha  occ. eigenvalues --   -0.61179  -0.60260  -0.59708  -0.58989  -0.57691
 Alpha  occ. eigenvalues --   -0.57036  -0.56455  -0.56264  -0.55392  -0.55103
 Alpha  occ. eigenvalues --   -0.54956  -0.53129  -0.52138  -0.51842  -0.51296
 Alpha  occ. eigenvalues --   -0.50781  -0.49501  -0.48947  -0.48286  -0.47681
 Alpha  occ. eigenvalues --   -0.47384  -0.46999  -0.46603  -0.46221  -0.45671
 Alpha  occ. eigenvalues --   -0.45600  -0.45241  -0.45001  -0.44711  -0.44630
 Alpha  occ. eigenvalues --   -0.44282  -0.44084  -0.43610  -0.43532  -0.43280
 Alpha  occ. eigenvalues --   -0.43079  -0.42741  -0.42453  -0.42261  -0.42084
 Alpha  occ. eigenvalues --   -0.41854  -0.41374  -0.41096  -0.40675  -0.40075
 Alpha  occ. eigenvalues --   -0.39198  -0.38965  -0.38830  -0.38436  -0.38221
 Alpha  occ. eigenvalues --   -0.38000  -0.37770  -0.37569  -0.37343  -0.36594
 Alpha  occ. eigenvalues --   -0.36339  -0.35921  -0.35407  -0.35066  -0.34766
 Alpha  occ. eigenvalues --   -0.33604  -0.31313  -0.30919  -0.30312  -0.29796
 Alpha  occ. eigenvalues --   -0.29555  -0.28762  -0.28504  -0.28167  -0.27649
 Alpha  occ. eigenvalues --   -0.26732  -0.26286  -0.25523  -0.22657  -0.20097
 Alpha  occ. eigenvalues --   -0.18975
 Alpha virt. eigenvalues --   -0.01577  -0.00742   0.00613   0.00880   0.01272
 Alpha virt. eigenvalues --    0.01549   0.01767   0.03140   0.03304   0.03432
 Alpha virt. eigenvalues --    0.04022   0.04296   0.04834   0.05217   0.05289

 Mulliken charges:
               1
     1  C   -0.310393
     2  C   -0.050394
     3  S   -0.086110
     4  C   -0.284011
     5  C    0.117457
     6  C   -0.274816
     7  C    0.015343
     8  C   -0.056352
     9  H    0.133992
    10  C   -0.144461
    11  C   -0.042315
    12  C   -0.089180
    13  C    0.018386
    14  H    0.225538
    15  H    0.114849
    16  H    0.150710
    17  C   -0.172221
    18  H    0.127562
    19  H    0.114190
    20  H    0.108507
    21  H    0.135404
    22  S    0.186365
    23  N    0.047357
    24  C   -0.293084
    25  C    0.039017
    26  C   -0.027021
    27  C   -0.210650
    28  C   -0.170640
    29  C    0.137462
    30  H    0.123255
    31  H    0.121498
    32  H    0.117626
    33  H    0.105108
    34  C   -0.090750
    35  C   -0.098658
    36  C   -0.106696
    37  C   -0.138813
    38  C   -0.180241
    39  C    0.090115
    40  H    0.115091
    41  H    0.173236
    42  H    0.097949
    43  H    0.160821
    44  N    0.023313
    45  C   -0.081238
    46  C   -0.101583
    47  C   -0.085833
    48  C   -0.164534
    49  C   -0.192850
    50  C    0.114207
    51  H    0.135533
    52  H    0.136954
    53  H    0.097928
    54  H    0.107959
    55  C   -0.099829
    56  C   -0.069667
    57  C   -0.136647
    58  C   -0.195543
    59  C   -0.133798
    60  C    0.105080
    61  H    0.126473
    62  H    0.141420
    63  H    0.106166
    64  H    0.119773
    65  O   -0.245148
    66  H    0.267415
    67  O   -0.235770
    68  H    0.270043
    69  O   -0.246207
    70  H    0.265692
    71  O   -0.246374
    72  H    0.267034
 Sum of Mulliken charges =  -0.00000

 Dipole moment (field-independent basis, Debye):
    X=              6.5248    Y=              0.5685    Z=              4.8382  Tot=              8.1427
 Quadrupole moment (field-independent basis, Debye-Ang):
   XX=           -224.5042   YY=           -245.7131   ZZ=           -267.9298
   XY=             10.0919   XZ=              1.0831   YZ=             -6.2626

 Normal termination of Gaussian 16 at Thu Jan 21 15:04:42 2021.
