 Gaussian 16, Revision A.03,
 Gaussian 16:  EM64L-G16RevA.03 25-Dec-2016

 ----------------------------------------------------------------------
 #P LC-wHPBE/TZVP iop(3/107=0167800000, 3/108=0167800000) scf=(conver=6
 ,fermi,ndamp=35,noincfock,novaracc,vshift=500,xqc)
 ----------------------------------------------------------------------

 ----------------
 H28 C36 S2 N2 O4
 ----------------
 Symbolic Z-matrix:
 Charge =  0 Multiplicity = 1

                         Standard orientation:
 ---------------------------------------------------------------------
 Center     Atomic      Atomic             Coordinates (Angstroms)
 Number     Number       Type             X           Y           Z
 ---------------------------------------------------------------------
      1          6           0       -1.748928    0.489907   -0.452051
      2          6           0       -0.626174    1.279763   -0.152570
      3         16           0        1.952753    5.388628   -0.812439
      4          6           0       -0.882312    2.170069    0.820725
      5          6           0        1.932708    2.897266    0.476539
      6          6           0        2.566514    3.761438   -0.418550
      7          6           0       -2.975354    0.631957    0.195801
      8          6           0       -2.049066    2.386893    1.545961
      9          1           0        0.246316    4.468801    0.586079
     10          6           0        2.384401    1.613824    0.700024
     11          6           0        3.673888    3.269502   -1.095477
     12          6           0        4.135912    1.984797   -0.893895
     13          6           0        3.494497    1.125461    0.002977
     14          1           0        1.857267    0.971131    1.395345
     15          1           0        4.176334    3.912174   -1.811785
     16          1           0        4.992977    1.632150   -1.456718
     17          6           0       -3.122467    1.590215    1.210611
     18          1           0       -1.688273   -0.276733   -1.226088
     19          1           0        2.539000    6.051116    0.206249
     20          1           0       -2.132551    3.120151    2.347153
     21          1           0       -4.068236    1.688167    1.734116
     22         16           0        0.491419    3.391365    1.378930
     23          7           0        3.940024   -0.175839    0.195205
     24          6           0        5.265040   -0.539150   -0.184549
     25          6           0        5.479402   -1.520085   -1.147894
     26          6           0        6.360048    0.068673    0.412912
     27          6           0        6.761446   -1.889048   -1.505778
     28          6           0        7.649207   -0.280692    0.044528
     29          6           0        7.852726   -1.265560   -0.913210
     30          1           0        4.624132   -2.002234   -1.612555
     31          1           0        6.198832    0.830082    1.170918
     32          1           0        6.936355   -2.656092   -2.253454
     33          1           0        8.499101    0.206598    0.518215
     34          6           0        3.067884   -1.217797    0.624973
     35          6           0        3.533169   -2.175669    1.516644
     36          6           0        1.768428   -1.324352    0.133595
     37          6           0        2.723890   -3.230889    1.904642
     38          6           0        0.952027   -2.363639    0.537000
     39          6           0        1.429133   -3.326131    1.415171
     40          1           0        4.545758   -2.102962    1.902377
     41          1           0        1.364259   -0.566763   -0.534909
     42          1           0        3.106488   -3.978127    2.597301
     43          1           0       -0.063643   -2.437107    0.162477
     44          7           0       -4.071583   -0.199288   -0.137893
     45          6           0       -5.379657    0.330758   -0.192504
     46          6           0       -6.464072   -0.381862    0.308117
     47          6           0       -5.615898    1.583782   -0.758482
     48          6           0       -7.748035    0.135409    0.237366
     49          6           0       -6.890741    2.113870   -0.808775
     50          6           0       -7.966332    1.388715   -0.314728
     51          1           0       -6.301182   -1.359246    0.752201
     52          1           0       -4.779992    2.148147   -1.160920
     53          1           0       -8.582756   -0.442294    0.630527
     54          1           0       -7.071352    3.090185   -1.247847
     55          6           0       -3.863071   -1.579858   -0.373004
     56          6           0       -4.488297   -2.228332   -1.435995
     57          6           0       -3.028002   -2.320518    0.455690
     58          6           0       -4.288516   -3.577498   -1.662294
     59          6           0       -2.802155   -3.666597    0.218956
     60          6           0       -3.435225   -4.300687   -0.840523
     61          1           0       -5.141183   -1.661753   -2.093518
     62          1           0       -2.533592   -1.828985    1.288374
     63          1           0       -4.774148   -4.081779   -2.492022
     64          1           0       -2.125658   -4.220184    0.867724
     65          8           0        0.584592   -4.343911    1.769173
     66          1           0        1.030590   -4.920168    2.399784
     67          8           0        9.095256   -1.661445   -1.308356
     68          1           0        9.763222   -1.159512   -0.827959
     69          8           0       -9.209724    1.953542   -0.400297
     70          1           0       -9.859516    1.347058   -0.028653
     71          8           0       -3.254007   -5.627948   -1.116747
     72          1           0       -2.609433   -5.991357   -0.499352
 ---------------------------------------------------------------------

 SCF Done:  E(RLC-wHPBE) =  -2593.93447018     A.U. after   21 cycles

 The electronic state is 1-A.
 Alpha  occ. eigenvalues --  -88.25726 -88.20623 -18.88789 -18.88001 -18.86597
 Alpha  occ. eigenvalues --  -18.86369 -14.12262 -14.09198 -10.05271 -10.04150
 Alpha  occ. eigenvalues --  -10.03991 -10.03965 -10.03069 -10.02689 -10.02514
 Alpha  occ. eigenvalues --  -10.02443 -10.01745 -10.00295 -10.00079  -9.99967
 Alpha  occ. eigenvalues --   -9.99795  -9.99697  -9.99663  -9.99654  -9.99369
 Alpha  occ. eigenvalues --   -9.99072  -9.98949  -9.98929  -9.98599  -9.98559
 Alpha  occ. eigenvalues --   -9.97661  -9.97533  -9.97438  -9.97364  -9.97075
 Alpha  occ. eigenvalues --   -9.96956  -9.96888  -9.96829  -9.96816  -9.96734
 Alpha  occ. eigenvalues --   -9.96582  -9.96041  -9.94878  -9.91173  -7.84811
 Alpha  occ. eigenvalues --   -7.79851  -5.86812  -5.86594  -5.86072  -5.82054
 Alpha  occ. eigenvalues --   -5.81625  -5.80864  -1.08652  -1.07636  -1.06310
 Alpha  occ. eigenvalues --   -1.06102  -0.99751  -0.96800  -0.92268  -0.89248
 Alpha  occ. eigenvalues --   -0.88056  -0.87134  -0.87066  -0.85930  -0.84085
 Alpha  occ. eigenvalues --   -0.83097  -0.79614  -0.79153  -0.78197  -0.77983
 Alpha  occ. eigenvalues --   -0.77307  -0.77219  -0.77084  -0.76503  -0.75520
 Alpha  occ. eigenvalues --   -0.74263  -0.73440  -0.71562  -0.68481  -0.67628
 Alpha  occ. eigenvalues --   -0.66847  -0.66215  -0.65997  -0.65558  -0.64410
 Alpha  occ. eigenvalues --   -0.63988  -0.63070  -0.62495  -0.61778  -0.60436
 Alpha  occ. eigenvalues --   -0.59763  -0.59170  -0.59032  -0.58112  -0.57787
 Alpha  occ. eigenvalues --   -0.57624  -0.55752  -0.54878  -0.54539  -0.53962
 Alpha  occ. eigenvalues --   -0.53460  -0.52165  -0.51587  -0.50904  -0.50286
 Alpha  occ. eigenvalues --   -0.49998  -0.49591  -0.49286  -0.48846  -0.48262
 Alpha  occ. eigenvalues --   -0.48161  -0.47819  -0.47574  -0.47361  -0.47193
 Alpha  occ. eigenvalues --   -0.46871  -0.46639  -0.46228  -0.46177  -0.45803
 Alpha  occ. eigenvalues --   -0.45592  -0.45245  -0.45003  -0.44943  -0.44607
 Alpha  occ. eigenvalues --   -0.44428  -0.43856  -0.43641  -0.43111  -0.42497
 Alpha  occ. eigenvalues --   -0.41639  -0.41425  -0.41219  -0.40948  -0.40650
 Alpha  occ. eigenvalues --   -0.40540  -0.40171  -0.40095  -0.39750  -0.39100
 Alpha  occ. eigenvalues --   -0.38712  -0.38429  -0.37755  -0.37410  -0.37076
 Alpha  occ. eigenvalues --   -0.35980  -0.33647  -0.33092  -0.32561  -0.32044
 Alpha  occ. eigenvalues --   -0.31674  -0.30886  -0.30588  -0.30261  -0.29701
 Alpha  occ. eigenvalues --   -0.28793  -0.28278  -0.27527  -0.24413  -0.21888
 Alpha  occ. eigenvalues --   -0.20824
 Alpha virt. eigenvalues --   -0.00006   0.00896   0.02389   0.02598   0.03009
 Alpha virt. eigenvalues --    0.03324   0.03599   0.04939   0.05036   0.05308
 Alpha virt. eigenvalues --    0.05856   0.06109   0.06722   0.07053   0.07165

 Mulliken charges:
               1
     1  C   -0.305265
     2  C   -0.075717
     3  S   -0.083067
     4  C   -0.272877
     5  C    0.113213
     6  C   -0.280026
     7  C    0.016521
     8  C   -0.061291
     9  H    0.138085
    10  C   -0.144063
    11  C   -0.045493
    12  C   -0.094108
    13  C    0.020134
    14  H    0.230913
    15  H    0.118896
    16  H    0.156058
    17  C   -0.175542
    18  H    0.130214
    19  H    0.114041
    20  H    0.112542
    21  H    0.138772
    22  S    0.194749
    23  N    0.036153
    24  C   -0.294150
    25  C    0.041962
    26  C   -0.022621
    27  C   -0.218063
    28  C   -0.178521
    29  C    0.138815
    30  H    0.126507
    31  H    0.124486
    32  H    0.119814
    33  H    0.107553
    34  C   -0.090894
    35  C   -0.099673
    36  C   -0.103324
    37  C   -0.145383
    38  C   -0.186774
    39  C    0.090895
    40  H    0.118138
    41  H    0.178897
    42  H    0.100302
    43  H    0.162301
    44  N    0.010870
    45  C   -0.080947
    46  C   -0.101490
    47  C   -0.083445
    48  C   -0.170588
    49  C   -0.199122
    50  C    0.114396
    51  H    0.139311
    52  H    0.140951
    53  H    0.100444
    54  H    0.110079
    55  C   -0.101373
    56  C   -0.067062
    57  C   -0.134073
    58  C   -0.202336
    59  C   -0.139078
    60  C    0.103656
    61  H    0.130238
    62  H    0.145315
    63  H    0.108279
    64  H    0.123807
    65  O   -0.244448
    66  H    0.267414
    67  O   -0.235141
    68  H    0.269912
    69  O   -0.245540
    70  H    0.265602
    71  O   -0.245741
    72  H    0.267000
 Sum of Mulliken charges =  -0.00000

 Dipole moment (field-independent basis, Debye):
    X=              6.6488    Y=              0.7897    Z=              4.9323  Tot=              8.3161
 Quadrupole moment (field-independent basis, Debye-Ang):
   XX=           -225.0748   YY=           -245.0129   ZZ=           -267.4756
   XY=             10.6435   XZ=              1.1457   YZ=             -6.0819

 Normal termination of Gaussian 16 at Fri Jan 22 03:35:30 2021.
