 Gaussian 16, Revision A.03,
 Gaussian 16:  EM64L-G16RevA.03 25-Dec-2016

 ----------------------------------------------------------------------
 #P LC-wHPBE/TZVP iop(3/107=0176200000, 3/108=0176200000) scf=(conver=6
 ,fermi,ndamp=35,noincfock,novaracc,vshift=500,xqc)
 ----------------------------------------------------------------------

 ----------------
 H28 C36 S2 N2 O4
 ----------------
 Symbolic Z-matrix:
 Charge =  1 Multiplicity = 2

                         Standard orientation:
 ---------------------------------------------------------------------
 Center     Atomic      Atomic             Coordinates (Angstroms)
 Number     Number       Type             X           Y           Z
 ---------------------------------------------------------------------
      1          6           0       -1.748928    0.489907   -0.452051
      2          6           0       -0.626174    1.279763   -0.152570
      3         16           0        1.952753    5.388628   -0.812439
      4          6           0       -0.882312    2.170069    0.820725
      5          6           0        1.932708    2.897266    0.476539
      6          6           0        2.566514    3.761438   -0.418550
      7          6           0       -2.975354    0.631957    0.195801
      8          6           0       -2.049066    2.386893    1.545961
      9          1           0        0.246316    4.468801    0.586079
     10          6           0        2.384401    1.613824    0.700024
     11          6           0        3.673888    3.269502   -1.095477
     12          6           0        4.135912    1.984797   -0.893895
     13          6           0        3.494497    1.125461    0.002977
     14          1           0        1.857267    0.971131    1.395345
     15          1           0        4.176334    3.912174   -1.811785
     16          1           0        4.992977    1.632150   -1.456718
     17          6           0       -3.122467    1.590215    1.210611
     18          1           0       -1.688273   -0.276733   -1.226088
     19          1           0        2.539000    6.051116    0.206249
     20          1           0       -2.132551    3.120151    2.347153
     21          1           0       -4.068236    1.688167    1.734116
     22         16           0        0.491419    3.391365    1.378930
     23          7           0        3.940024   -0.175839    0.195205
     24          6           0        5.265040   -0.539150   -0.184549
     25          6           0        5.479402   -1.520085   -1.147894
     26          6           0        6.360048    0.068673    0.412912
     27          6           0        6.761446   -1.889048   -1.505778
     28          6           0        7.649207   -0.280692    0.044528
     29          6           0        7.852726   -1.265560   -0.913210
     30          1           0        4.624132   -2.002234   -1.612555
     31          1           0        6.198832    0.830082    1.170918
     32          1           0        6.936355   -2.656092   -2.253454
     33          1           0        8.499101    0.206598    0.518215
     34          6           0        3.067884   -1.217797    0.624973
     35          6           0        3.533169   -2.175669    1.516644
     36          6           0        1.768428   -1.324352    0.133595
     37          6           0        2.723890   -3.230889    1.904642
     38          6           0        0.952027   -2.363639    0.537000
     39          6           0        1.429133   -3.326131    1.415171
     40          1           0        4.545758   -2.102962    1.902377
     41          1           0        1.364259   -0.566763   -0.534909
     42          1           0        3.106488   -3.978127    2.597301
     43          1           0       -0.063643   -2.437107    0.162477
     44          7           0       -4.071583   -0.199288   -0.137893
     45          6           0       -5.379657    0.330758   -0.192504
     46          6           0       -6.464072   -0.381862    0.308117
     47          6           0       -5.615898    1.583782   -0.758482
     48          6           0       -7.748035    0.135409    0.237366
     49          6           0       -6.890741    2.113870   -0.808775
     50          6           0       -7.966332    1.388715   -0.314728
     51          1           0       -6.301182   -1.359246    0.752201
     52          1           0       -4.779992    2.148147   -1.160920
     53          1           0       -8.582756   -0.442294    0.630527
     54          1           0       -7.071352    3.090185   -1.247847
     55          6           0       -3.863071   -1.579858   -0.373004
     56          6           0       -4.488297   -2.228332   -1.435995
     57          6           0       -3.028002   -2.320518    0.455690
     58          6           0       -4.288516   -3.577498   -1.662294
     59          6           0       -2.802155   -3.666597    0.218956
     60          6           0       -3.435225   -4.300687   -0.840523
     61          1           0       -5.141183   -1.661753   -2.093518
     62          1           0       -2.533592   -1.828985    1.288374
     63          1           0       -4.774148   -4.081779   -2.492022
     64          1           0       -2.125658   -4.220184    0.867724
     65          8           0        0.584592   -4.343911    1.769173
     66          1           0        1.030590   -4.920168    2.399784
     67          8           0        9.095256   -1.661445   -1.308356
     68          1           0        9.763222   -1.159512   -0.827959
     69          8           0       -9.209724    1.953542   -0.400297
     70          1           0       -9.859516    1.347058   -0.028653
     71          8           0       -3.254007   -5.627948   -1.116747
     72          1           0       -2.609433   -5.991357   -0.499352
 ---------------------------------------------------------------------

 SCF Done:  E(ULC-wHPBE) =  -2593.74505672     A.U. after   33 cycles
 SCF Done:  E(ULC-wHPBE) =  -2593.74526342     a.u. after    3 cycles

 The electronic state is 2-A.
 Alpha  occ. eigenvalues --  -88.38645 -88.30192 -18.97046 -18.96642 -18.96600
 Alpha  occ. eigenvalues --  -18.95305 -14.24932 -14.21335 -10.14888 -10.14641
 Alpha  occ. eigenvalues --  -10.14611 -10.14259 -10.13837 -10.13756 -10.13056
 Alpha  occ. eigenvalues --  -10.12948 -10.12451 -10.12353 -10.12238 -10.11514
 Alpha  occ. eigenvalues --  -10.10796 -10.10375 -10.10292 -10.10089 -10.10058
 Alpha  occ. eigenvalues --  -10.09832 -10.09629 -10.09063 -10.08833 -10.08724
 Alpha  occ. eigenvalues --  -10.08660 -10.08585 -10.08272 -10.08125 -10.07821
 Alpha  occ. eigenvalues --  -10.07556 -10.07333 -10.07290 -10.07241 -10.07126
 Alpha  occ. eigenvalues --  -10.06828 -10.06823 -10.06722 -10.06040  -7.97667
 Alpha  occ. eigenvalues --   -7.89405  -5.99607  -5.99505  -5.98924  -5.91596
 Alpha  occ. eigenvalues --   -5.91159  -5.90429  -1.16733  -1.16330  -1.16249
 Alpha  occ. eigenvalues --   -1.15194  -1.11081  -1.08756  -1.03570  -1.00888
 Alpha  occ. eigenvalues --   -0.98844  -0.97878  -0.97309  -0.96806  -0.95767
 Alpha  occ. eigenvalues --   -0.92758  -0.90605  -0.89984  -0.88736  -0.88449
 Alpha  occ. eigenvalues --   -0.87963  -0.87823  -0.87381  -0.86898  -0.86405
 Alpha  occ. eigenvalues --   -0.86136  -0.84194  -0.82340  -0.78297  -0.78040
 Alpha  occ. eigenvalues --   -0.76973  -0.76736  -0.76385  -0.75464  -0.75242
 Alpha  occ. eigenvalues --   -0.74722  -0.74450  -0.73308  -0.71952  -0.71432
 Alpha  occ. eigenvalues --   -0.69282  -0.69023  -0.68746  -0.68424  -0.68122
 Alpha  occ. eigenvalues --   -0.67611  -0.67295  -0.66622  -0.65320  -0.63775
 Alpha  occ. eigenvalues --   -0.63539  -0.62931  -0.62094  -0.61862  -0.61225
 Alpha  occ. eigenvalues --   -0.60234  -0.60176  -0.59914  -0.59313  -0.58708
 Alpha  occ. eigenvalues --   -0.58605  -0.58129  -0.57259  -0.57058  -0.56925
 Alpha  occ. eigenvalues --   -0.56789  -0.56608  -0.56272  -0.56115  -0.55777
 Alpha  occ. eigenvalues --   -0.55613  -0.55338  -0.55225  -0.55157  -0.54935
 Alpha  occ. eigenvalues --   -0.54693  -0.54336  -0.54079  -0.53563  -0.53010
 Alpha  occ. eigenvalues --   -0.52455  -0.52103  -0.51571  -0.51366  -0.51114
 Alpha  occ. eigenvalues --   -0.50588  -0.50344  -0.49938  -0.49753  -0.49002
 Alpha  occ. eigenvalues --   -0.48494  -0.48134  -0.47997  -0.47655  -0.46828
 Alpha  occ. eigenvalues --   -0.46663  -0.45332  -0.43323  -0.42826  -0.42400
 Alpha  occ. eigenvalues --   -0.41823  -0.41497  -0.41005  -0.40657  -0.40224
 Alpha  occ. eigenvalues --   -0.39755  -0.39187  -0.38579  -0.37249  -0.34299
 Alpha  occ. eigenvalues --   -0.32883
 Alpha virt. eigenvalues --   -0.10188  -0.09309  -0.08672  -0.07539  -0.06319
 Alpha virt. eigenvalues --   -0.06050  -0.05929  -0.05647  -0.05217  -0.04707
 Alpha virt. eigenvalues --   -0.04098  -0.03976  -0.02415  -0.02349  -0.01640

  Beta  occ. eigenvalues --  -88.38637 -88.30191 -18.96993 -18.96607 -18.96599
  Beta  occ. eigenvalues --  -18.95304 -14.24533 -14.21324 -10.14883 -10.14597
  Beta  occ. eigenvalues --  -10.14536 -10.14184 -10.13784 -10.13751 -10.13057
  Beta  occ. eigenvalues --  -10.12946 -10.12466 -10.12353 -10.12256 -10.11491
  Beta  occ. eigenvalues --  -10.10798 -10.10291 -10.10265 -10.10087 -10.10059
  Beta  occ. eigenvalues --  -10.09625 -10.09116 -10.08993 -10.08768 -10.08667
  Beta  occ. eigenvalues --  -10.08661 -10.08538 -10.08293 -10.08139 -10.07840
  Beta  occ. eigenvalues --  -10.07573 -10.07330 -10.07285 -10.07243 -10.07125
  Beta  occ. eigenvalues --  -10.06827 -10.06822 -10.06722 -10.06040  -7.97657
  Beta  occ. eigenvalues --   -7.89404  -5.99597  -5.99487  -5.98915  -5.91595
  Beta  occ. eigenvalues --   -5.91158  -5.90425  -1.16636  -1.16264  -1.16246
  Beta  occ. eigenvalues --   -1.15193  -1.10584  -1.08742  -1.03480  -1.00652
  Beta  occ. eigenvalues --   -0.98747  -0.97805  -0.97292  -0.96701  -0.95735
  Beta  occ. eigenvalues --   -0.92749  -0.90453  -0.89641  -0.88561  -0.88397
  Beta  occ. eigenvalues --   -0.87863  -0.87760  -0.87363  -0.86880  -0.86397
  Beta  occ. eigenvalues --   -0.86121  -0.83947  -0.82326  -0.78137  -0.77876
  Beta  occ. eigenvalues --   -0.76925  -0.76614  -0.76255  -0.75375  -0.75199
  Beta  occ. eigenvalues --   -0.74614  -0.74421  -0.73297  -0.71849  -0.71332
  Beta  occ. eigenvalues --   -0.69142  -0.68967  -0.68729  -0.68225  -0.68104
  Beta  occ. eigenvalues --   -0.67505  -0.67286  -0.66557  -0.65227  -0.63579
  Beta  occ. eigenvalues --   -0.63429  -0.62844  -0.61936  -0.61807  -0.61105
  Beta  occ. eigenvalues --   -0.60189  -0.60136  -0.59779  -0.59264  -0.58647
  Beta  occ. eigenvalues --   -0.58551  -0.58069  -0.57228  -0.57045  -0.56896
  Beta  occ. eigenvalues --   -0.56706  -0.56535  -0.56146  -0.56043  -0.55579
  Beta  occ. eigenvalues --   -0.55522  -0.55330  -0.55111  -0.54964  -0.54905
  Beta  occ. eigenvalues --   -0.54484  -0.54244  -0.54045  -0.53476  -0.52893
  Beta  occ. eigenvalues --   -0.52252  -0.52053  -0.51507  -0.51228  -0.51030
  Beta  occ. eigenvalues --   -0.50392  -0.50282  -0.49917  -0.49466  -0.48984
  Beta  occ. eigenvalues --   -0.48416  -0.48092  -0.47988  -0.47618  -0.46826
  Beta  occ. eigenvalues --   -0.46052  -0.45268  -0.43014  -0.42644  -0.42022
  Beta  occ. eigenvalues --   -0.41640  -0.41312  -0.40676  -0.40546  -0.40075
  Beta  occ. eigenvalues --   -0.39282  -0.38115  -0.37247  -0.33329  -0.32588
  Beta virt. eigenvalues --   -0.20743  -0.09951  -0.09105  -0.08361  -0.07362
  Beta virt. eigenvalues --   -0.06176  -0.05780  -0.05636  -0.05447  -0.04993
  Beta virt. eigenvalues --   -0.04646  -0.04049  -0.03959  -0.02370  -0.02018

 Mulliken charges and spin densities:
               1          2
     1  C   -0.229302   0.055088
     2  C    0.094596   0.464382
     3  S   -0.046600   0.002381
     4  C   -0.301960   0.004166
     5  C    0.071059  -0.018872
     6  C   -0.289883  -0.001448
     7  C   -0.014636   0.023241
     8  C   -0.044864   0.008666
     9  H    0.148691   0.001756
    10  C   -0.180545   0.019122
    11  C   -0.033160   0.003602
    12  C   -0.080448  -0.000766
    13  C    0.028322   0.000528
    14  H    0.238010  -0.000033
    15  H    0.147155  -0.000190
    16  H    0.178275   0.000090
    17  C   -0.142599   0.010609
    18  H    0.183213   0.015486
    19  H    0.132401  -0.000068
    20  H    0.166552   0.008955
    21  H    0.177693  -0.000227
    22  S    0.264373   0.013680
    23  N    0.031166   0.005166
    24  C   -0.288294  -0.000138
    25  C    0.037920   0.000538
    26  C   -0.026641   0.000594
    27  C   -0.216998  -0.000228
    28  C   -0.174764  -0.000350
    29  C    0.137864   0.000521
    30  H    0.126625  -0.000031
    31  H    0.128821  -0.000029
    32  H    0.134263   0.000023
    33  H    0.122862   0.000016
    34  C   -0.086076  -0.000394
    35  C   -0.091411   0.002425
    36  C   -0.131658   0.000247
    37  C   -0.137560  -0.001321
    38  C   -0.176694   0.000417
    39  C    0.091716   0.001871
    40  H    0.137687   0.000015
    41  H    0.174811   0.000115
    42  H    0.122491   0.000052
    43  H    0.147948   0.000481
    44  N    0.055583   0.187291
    45  C   -0.088051  -0.008087
    46  C   -0.091282   0.037159
    47  C   -0.077878   0.031856
    48  C   -0.157931  -0.015286
    49  C   -0.192455  -0.016760
    50  C    0.119000   0.037950
    51  H    0.160858  -0.001695
    52  H    0.152495  -0.001187
    53  H    0.132850   0.001039
    54  H    0.141693   0.000781
    55  C   -0.126493  -0.008056
    56  C   -0.051804   0.045189
    57  C   -0.130463   0.049238
    58  C   -0.192836  -0.019933
    59  C   -0.124233  -0.022555
    60  C    0.112485   0.055282
    61  H    0.156983  -0.002078
    62  H    0.159000  -0.002343
    63  H    0.144654   0.000994
    64  H    0.150326   0.000948
    65  O   -0.248324   0.000515
    66  H    0.279419  -0.000000
    67  O   -0.222524   0.000143
    68  H    0.276430  -0.000004
    69  O   -0.216019   0.012076
    70  H    0.279671  -0.000287
    71  O   -0.212007   0.018133
    72  H    0.280433  -0.000456
 Sum of Mulliken charges =   1.00000   1.00000

 Dipole moment (field-independent basis, Debye):
    X=             -1.3391    Y=              2.6926    Z=              4.8318  Tot=              5.6911
 Quadrupole moment (field-independent basis, Debye-Ang):
   XX=           -121.0190   YY=           -199.0153   ZZ=           -255.2486
   XY=             14.2818   XZ=              2.6357   YZ=             -2.7578

 Normal termination of Gaussian 16 at Thu Jan 21 22:02:46 2021.
