 Gaussian 16, Revision A.03,
 Gaussian 16:  EM64L-G16RevA.03 25-Dec-2016

 ----------------------------------------------------------------------
 #P LC-wHPBE/TZVP iop(3/107=0176200000, 3/108=0176200000) scf=(conver=6
 ,fermi,ndamp=35,noincfock,novaracc,vshift=500,xqc)
 ----------------------------------------------------------------------

 ----------------
 H28 C36 S2 N2 O4
 ----------------
 Symbolic Z-matrix:
 Charge =  0 Multiplicity = 1

                         Standard orientation:
 ---------------------------------------------------------------------
 Center     Atomic      Atomic             Coordinates (Angstroms)
 Number     Number       Type             X           Y           Z
 ---------------------------------------------------------------------
      1          6           0       -1.748928    0.489907   -0.452051
      2          6           0       -0.626174    1.279763   -0.152570
      3         16           0        1.952753    5.388628   -0.812439
      4          6           0       -0.882312    2.170069    0.820725
      5          6           0        1.932708    2.897266    0.476539
      6          6           0        2.566514    3.761438   -0.418550
      7          6           0       -2.975354    0.631957    0.195801
      8          6           0       -2.049066    2.386893    1.545961
      9          1           0        0.246316    4.468801    0.586079
     10          6           0        2.384401    1.613824    0.700024
     11          6           0        3.673888    3.269502   -1.095477
     12          6           0        4.135912    1.984797   -0.893895
     13          6           0        3.494497    1.125461    0.002977
     14          1           0        1.857267    0.971131    1.395345
     15          1           0        4.176334    3.912174   -1.811785
     16          1           0        4.992977    1.632150   -1.456718
     17          6           0       -3.122467    1.590215    1.210611
     18          1           0       -1.688273   -0.276733   -1.226088
     19          1           0        2.539000    6.051116    0.206249
     20          1           0       -2.132551    3.120151    2.347153
     21          1           0       -4.068236    1.688167    1.734116
     22         16           0        0.491419    3.391365    1.378930
     23          7           0        3.940024   -0.175839    0.195205
     24          6           0        5.265040   -0.539150   -0.184549
     25          6           0        5.479402   -1.520085   -1.147894
     26          6           0        6.360048    0.068673    0.412912
     27          6           0        6.761446   -1.889048   -1.505778
     28          6           0        7.649207   -0.280692    0.044528
     29          6           0        7.852726   -1.265560   -0.913210
     30          1           0        4.624132   -2.002234   -1.612555
     31          1           0        6.198832    0.830082    1.170918
     32          1           0        6.936355   -2.656092   -2.253454
     33          1           0        8.499101    0.206598    0.518215
     34          6           0        3.067884   -1.217797    0.624973
     35          6           0        3.533169   -2.175669    1.516644
     36          6           0        1.768428   -1.324352    0.133595
     37          6           0        2.723890   -3.230889    1.904642
     38          6           0        0.952027   -2.363639    0.537000
     39          6           0        1.429133   -3.326131    1.415171
     40          1           0        4.545758   -2.102962    1.902377
     41          1           0        1.364259   -0.566763   -0.534909
     42          1           0        3.106488   -3.978127    2.597301
     43          1           0       -0.063643   -2.437107    0.162477
     44          7           0       -4.071583   -0.199288   -0.137893
     45          6           0       -5.379657    0.330758   -0.192504
     46          6           0       -6.464072   -0.381862    0.308117
     47          6           0       -5.615898    1.583782   -0.758482
     48          6           0       -7.748035    0.135409    0.237366
     49          6           0       -6.890741    2.113870   -0.808775
     50          6           0       -7.966332    1.388715   -0.314728
     51          1           0       -6.301182   -1.359246    0.752201
     52          1           0       -4.779992    2.148147   -1.160920
     53          1           0       -8.582756   -0.442294    0.630527
     54          1           0       -7.071352    3.090185   -1.247847
     55          6           0       -3.863071   -1.579858   -0.373004
     56          6           0       -4.488297   -2.228332   -1.435995
     57          6           0       -3.028002   -2.320518    0.455690
     58          6           0       -4.288516   -3.577498   -1.662294
     59          6           0       -2.802155   -3.666597    0.218956
     60          6           0       -3.435225   -4.300687   -0.840523
     61          1           0       -5.141183   -1.661753   -2.093518
     62          1           0       -2.533592   -1.828985    1.288374
     63          1           0       -4.774148   -4.081779   -2.492022
     64          1           0       -2.125658   -4.220184    0.867724
     65          8           0        0.584592   -4.343911    1.769173
     66          1           0        1.030590   -4.920168    2.399784
     67          8           0        9.095256   -1.661445   -1.308356
     68          1           0        9.763222   -1.159512   -0.827959
     69          8           0       -9.209724    1.953542   -0.400297
     70          1           0       -9.859516    1.347058   -0.028653
     71          8           0       -3.254007   -5.627948   -1.116747
     72          1           0       -2.609433   -5.991357   -0.499352
 ---------------------------------------------------------------------

 SCF Done:  E(RLC-wHPBE) =  -2593.95447451     A.U. after   21 cycles

 The electronic state is 1-A.
 Alpha  occ. eigenvalues --  -88.26230 -88.21096 -18.89236 -18.88446 -18.87042
 Alpha  occ. eigenvalues --  -18.86812 -14.12708 -14.09633 -10.05754 -10.04657
 Alpha  occ. eigenvalues --  -10.04472 -10.04466 -10.03566 -10.03170 -10.02993
 Alpha  occ. eigenvalues --  -10.02921 -10.02222 -10.00773 -10.00554 -10.00461
 Alpha  occ. eigenvalues --  -10.00282 -10.00175 -10.00136 -10.00130  -9.99847
 Alpha  occ. eigenvalues --   -9.99558  -9.99424  -9.99421  -9.99073  -9.99033
 Alpha  occ. eigenvalues --   -9.98134  -9.98010  -9.97908  -9.97837  -9.97549
 Alpha  occ. eigenvalues --   -9.97425  -9.97362  -9.97301  -9.97288  -9.97206
 Alpha  occ. eigenvalues --   -9.97051  -9.96504  -9.95331  -9.91607  -7.85322
 Alpha  occ. eigenvalues --   -7.80332  -5.87316  -5.87097  -5.86573  -5.82528
 Alpha  occ. eigenvalues --   -5.82097  -5.81335  -1.09125  -1.08107  -1.06781
 Alpha  occ. eigenvalues --   -1.06571  -1.00245  -0.97284  -0.92794  -0.89749
 Alpha  occ. eigenvalues --   -0.88561  -0.87632  -0.87568  -0.86430  -0.84582
 Alpha  occ. eigenvalues --   -0.83600  -0.80099  -0.79639  -0.78681  -0.78468
 Alpha  occ. eigenvalues --   -0.77785  -0.77701  -0.77567  -0.76980  -0.75995
 Alpha  occ. eigenvalues --   -0.74733  -0.73908  -0.72024  -0.68928  -0.68077
 Alpha  occ. eigenvalues --   -0.67302  -0.66655  -0.66443  -0.66005  -0.64856
 Alpha  occ. eigenvalues --   -0.64430  -0.63508  -0.62929  -0.62216  -0.60859
 Alpha  occ. eigenvalues --   -0.60185  -0.59590  -0.59459  -0.58532  -0.58201
 Alpha  occ. eigenvalues --   -0.58032  -0.56154  -0.55301  -0.54953  -0.54367
 Alpha  occ. eigenvalues --   -0.53870  -0.52573  -0.51992  -0.51304  -0.50681
 Alpha  occ. eigenvalues --   -0.50398  -0.49984  -0.49695  -0.49246  -0.48658
 Alpha  occ. eigenvalues --   -0.48549  -0.48211  -0.47967  -0.47769  -0.47581
 Alpha  occ. eigenvalues --   -0.47263  -0.47027  -0.46642  -0.46569  -0.46187
 Alpha  occ. eigenvalues --   -0.45975  -0.45627  -0.45393  -0.45353  -0.44989
 Alpha  occ. eigenvalues --   -0.44816  -0.44230  -0.44024  -0.43480  -0.42860
 Alpha  occ. eigenvalues --   -0.42008  -0.41794  -0.41575  -0.41328  -0.41024
 Alpha  occ. eigenvalues --   -0.40914  -0.40530  -0.40473  -0.40107  -0.39478
 Alpha  occ. eigenvalues --   -0.39069  -0.38804  -0.38104  -0.37758  -0.37420
 Alpha  occ. eigenvalues --   -0.36328  -0.33991  -0.33399  -0.32889  -0.32366
 Alpha  occ. eigenvalues --   -0.31974  -0.31187  -0.30882  -0.30558  -0.29990
 Alpha  occ. eigenvalues --   -0.29085  -0.28558  -0.27808  -0.24658  -0.22145
 Alpha  occ. eigenvalues --   -0.21085
 Alpha virt. eigenvalues --    0.00200   0.01113   0.02627   0.02830   0.03241
 Alpha virt. eigenvalues --    0.03560   0.03844   0.05181   0.05269   0.05559
 Alpha virt. eigenvalues --    0.06105   0.06354   0.06977   0.07302   0.07420

 Mulliken charges:
               1
     1  C   -0.304491
     2  C   -0.079672
     3  S   -0.082497
     4  C   -0.271557
     5  C    0.112111
     6  C   -0.281196
     7  C    0.016581
     8  C   -0.062157
     9  H    0.138752
    10  C   -0.143788
    11  C   -0.045887
    12  C   -0.095248
    13  C    0.020246
    14  H    0.232031
    15  H    0.119862
    16  H    0.157221
    17  C   -0.176290
    18  H    0.130872
    19  H    0.113981
    20  H    0.113492
    21  H    0.139634
    22  S    0.196405
    23  N    0.033805
    24  C   -0.294403
    25  C    0.042030
    26  C   -0.022332
    27  C   -0.219163
    28  C   -0.179751
    29  C    0.138715
    30  H    0.127365
    31  H    0.125325
    32  H    0.120521
    33  H    0.108245
    34  C   -0.091148
    35  C   -0.100148
    36  C   -0.103065
    37  C   -0.146468
    38  C   -0.187651
    39  C    0.090780
    40  H    0.118991
    41  H    0.180153
    42  H    0.101002
    43  H    0.162743
    44  N    0.008366
    45  C   -0.081157
    46  C   -0.101762
    47  C   -0.083317
    48  C   -0.171554
    49  C   -0.200088
    50  C    0.114133
    51  H    0.140258
    52  H    0.141932
    53  H    0.101153
    54  H    0.110781
    55  C   -0.101755
    56  C   -0.066943
    57  C   -0.133992
    58  C   -0.203390
    59  C   -0.140033
    60  C    0.103234
    61  H    0.131192
    62  H    0.146270
    63  H    0.108982
    64  H    0.124719
    65  O   -0.244482
    66  H    0.267451
    67  O   -0.235182
    68  H    0.269921
    69  O   -0.245563
    70  H    0.265621
    71  O   -0.245775
    72  H    0.267032
 Sum of Mulliken charges =  -0.00000

 Dipole moment (field-independent basis, Debye):
    X=              6.6658    Y=              0.8259    Z=              4.9497  Tot=              8.3435
 Quadrupole moment (field-independent basis, Debye-Ang):
   XX=           -225.1719   YY=           -244.9068   ZZ=           -267.3985
   XY=             10.7339   XZ=              1.1602   YZ=             -6.0513

 Normal termination of Gaussian 16 at Thu Jan 21 20:02:56 2021.
