 Gaussian 16, Revision A.03,
 Gaussian 16:  EM64L-G16RevA.03 25-Dec-2016

 ----------------------------------------------------------------------
 #P LC-wHPBE/TZVP iop(3/107=0170900000, 3/108=0170900000) scf=(conver=6
 ,fermi,ndamp=35,noincfock,novaracc,vshift=500,xqc)
 ----------------------------------------------------------------------

 ----------------
 H28 C36 S2 N2 O4
 ----------------
 Symbolic Z-matrix:
 Charge =  0 Multiplicity = 1

                         Standard orientation:
 ---------------------------------------------------------------------
 Center     Atomic      Atomic             Coordinates (Angstroms)
 Number     Number       Type             X           Y           Z
 ---------------------------------------------------------------------
      1          6           0       -1.748928    0.489907   -0.452051
      2          6           0       -0.626174    1.279763   -0.152570
      3         16           0        1.952753    5.388628   -0.812439
      4          6           0       -0.882312    2.170069    0.820725
      5          6           0        1.932708    2.897266    0.476539
      6          6           0        2.566514    3.761438   -0.418550
      7          6           0       -2.975354    0.631957    0.195801
      8          6           0       -2.049066    2.386893    1.545961
      9          1           0        0.246316    4.468801    0.586079
     10          6           0        2.384401    1.613824    0.700024
     11          6           0        3.673888    3.269502   -1.095477
     12          6           0        4.135912    1.984797   -0.893895
     13          6           0        3.494497    1.125461    0.002977
     14          1           0        1.857267    0.971131    1.395345
     15          1           0        4.176334    3.912174   -1.811785
     16          1           0        4.992977    1.632150   -1.456718
     17          6           0       -3.122467    1.590215    1.210611
     18          1           0       -1.688273   -0.276733   -1.226088
     19          1           0        2.539000    6.051116    0.206249
     20          1           0       -2.132551    3.120151    2.347153
     21          1           0       -4.068236    1.688167    1.734116
     22         16           0        0.491419    3.391365    1.378930
     23          7           0        3.940024   -0.175839    0.195205
     24          6           0        5.265040   -0.539150   -0.184549
     25          6           0        5.479402   -1.520085   -1.147894
     26          6           0        6.360048    0.068673    0.412912
     27          6           0        6.761446   -1.889048   -1.505778
     28          6           0        7.649207   -0.280692    0.044528
     29          6           0        7.852726   -1.265560   -0.913210
     30          1           0        4.624132   -2.002234   -1.612555
     31          1           0        6.198832    0.830082    1.170918
     32          1           0        6.936355   -2.656092   -2.253454
     33          1           0        8.499101    0.206598    0.518215
     34          6           0        3.067884   -1.217797    0.624973
     35          6           0        3.533169   -2.175669    1.516644
     36          6           0        1.768428   -1.324352    0.133595
     37          6           0        2.723890   -3.230889    1.904642
     38          6           0        0.952027   -2.363639    0.537000
     39          6           0        1.429133   -3.326131    1.415171
     40          1           0        4.545758   -2.102962    1.902377
     41          1           0        1.364259   -0.566763   -0.534909
     42          1           0        3.106488   -3.978127    2.597301
     43          1           0       -0.063643   -2.437107    0.162477
     44          7           0       -4.071583   -0.199288   -0.137893
     45          6           0       -5.379657    0.330758   -0.192504
     46          6           0       -6.464072   -0.381862    0.308117
     47          6           0       -5.615898    1.583782   -0.758482
     48          6           0       -7.748035    0.135409    0.237366
     49          6           0       -6.890741    2.113870   -0.808775
     50          6           0       -7.966332    1.388715   -0.314728
     51          1           0       -6.301182   -1.359246    0.752201
     52          1           0       -4.779992    2.148147   -1.160920
     53          1           0       -8.582756   -0.442294    0.630527
     54          1           0       -7.071352    3.090185   -1.247847
     55          6           0       -3.863071   -1.579858   -0.373004
     56          6           0       -4.488297   -2.228332   -1.435995
     57          6           0       -3.028002   -2.320518    0.455690
     58          6           0       -4.288516   -3.577498   -1.662294
     59          6           0       -2.802155   -3.666597    0.218956
     60          6           0       -3.435225   -4.300687   -0.840523
     61          1           0       -5.141183   -1.661753   -2.093518
     62          1           0       -2.533592   -1.828985    1.288374
     63          1           0       -4.774148   -4.081779   -2.492022
     64          1           0       -2.125658   -4.220184    0.867724
     65          8           0        0.584592   -4.343911    1.769173
     66          1           0        1.030590   -4.920168    2.399784
     67          8           0        9.095256   -1.661445   -1.308356
     68          1           0        9.763222   -1.159512   -0.827959
     69          8           0       -9.209724    1.953542   -0.400297
     70          1           0       -9.859516    1.347058   -0.028653
     71          8           0       -3.254007   -5.627948   -1.116747
     72          1           0       -2.609433   -5.991357   -0.499352
 ---------------------------------------------------------------------

 SCF Done:  E(RLC-wHPBE) =  -2593.94185562     A.U. after   21 cycles

 The electronic state is 1-A.
 Alpha  occ. eigenvalues --  -88.25912 -88.20798 -18.88954 -18.88165 -18.86761
 Alpha  occ. eigenvalues --  -18.86533 -14.12426 -14.09359 -10.05449 -10.04337
 Alpha  occ. eigenvalues --  -10.04169 -10.04150 -10.03252 -10.02866 -10.02691
 Alpha  occ. eigenvalues --  -10.02619 -10.01921 -10.00471 -10.00254 -10.00149
 Alpha  occ. eigenvalues --   -9.99975  -9.99873  -9.99837  -9.99830  -9.99545
 Alpha  occ. eigenvalues --   -9.99251  -9.99123  -9.99111  -9.98774  -9.98734
 Alpha  occ. eigenvalues --   -9.97836  -9.97709  -9.97611  -9.97538  -9.97250
 Alpha  occ. eigenvalues --   -9.97129  -9.97063  -9.97003  -9.96990  -9.96908
 Alpha  occ. eigenvalues --   -9.96755  -9.96211  -9.95045  -9.91333  -7.85000
 Alpha  occ. eigenvalues --   -7.80028  -5.86998  -5.86779  -5.86257  -5.82229
 Alpha  occ. eigenvalues --   -5.81799  -5.81038  -1.08827  -1.07810  -1.06484
 Alpha  occ. eigenvalues --   -1.06275  -0.99933  -0.96979  -0.92462  -0.89433
 Alpha  occ. eigenvalues --   -0.88242  -0.87318  -0.87251  -0.86114  -0.84268
 Alpha  occ. eigenvalues --   -0.83283  -0.79793  -0.79332  -0.78376  -0.78162
 Alpha  occ. eigenvalues --   -0.77483  -0.77397  -0.77262  -0.76679  -0.75696
 Alpha  occ. eigenvalues --   -0.74437  -0.73613  -0.71733  -0.68646  -0.67794
 Alpha  occ. eigenvalues --   -0.67015  -0.66378  -0.66162  -0.65724  -0.64575
 Alpha  occ. eigenvalues --   -0.64152  -0.63232  -0.62656  -0.61940  -0.60593
 Alpha  occ. eigenvalues --   -0.59920  -0.59326  -0.59190  -0.58268  -0.57940
 Alpha  occ. eigenvalues --   -0.57775  -0.55901  -0.55035  -0.54693  -0.54112
 Alpha  occ. eigenvalues --   -0.53612  -0.52316  -0.51737  -0.51052  -0.50432
 Alpha  occ. eigenvalues --   -0.50147  -0.49737  -0.49438  -0.48994  -0.48409
 Alpha  occ. eigenvalues --   -0.48305  -0.47965  -0.47720  -0.47512  -0.47337
 Alpha  occ. eigenvalues --   -0.47017  -0.46783  -0.46382  -0.46322  -0.45946
 Alpha  occ. eigenvalues --   -0.45734  -0.45387  -0.45148  -0.45096  -0.44749
 Alpha  occ. eigenvalues --   -0.44572  -0.43995  -0.43783  -0.43248  -0.42632
 Alpha  occ. eigenvalues --   -0.41776  -0.41562  -0.41352  -0.41089  -0.40788
 Alpha  occ. eigenvalues --   -0.40680  -0.40304  -0.40235  -0.39883  -0.39240
 Alpha  occ. eigenvalues --   -0.38844  -0.38569  -0.37885  -0.37539  -0.37204
 Alpha  occ. eigenvalues --   -0.36110  -0.33775  -0.33207  -0.32683  -0.32164
 Alpha  occ. eigenvalues --   -0.31786  -0.30998  -0.30698  -0.30372  -0.29809
 Alpha  occ. eigenvalues --   -0.28902  -0.28383  -0.27632  -0.24505  -0.21984
 Alpha  occ. eigenvalues --   -0.20922
 Alpha virt. eigenvalues --    0.00071   0.00977   0.02479   0.02685   0.03096
 Alpha virt. eigenvalues --    0.03413   0.03691   0.05030   0.05123   0.05402
 Alpha virt. eigenvalues --    0.05949   0.06201   0.06818   0.07146   0.07260

 Mulliken charges:
               1
     1  C   -0.304974
     2  C   -0.077189
     3  S   -0.082857
     4  C   -0.272370
     5  C    0.112817
     6  C   -0.280448
     7  C    0.016548
     8  C   -0.061610
     9  H    0.138331
    10  C   -0.143966
    11  C   -0.045645
    12  C   -0.094519
    13  C    0.020182
    14  H    0.231318
    15  H    0.119242
    16  H    0.156478
    17  C   -0.175811
    18  H    0.130449
    19  H    0.114019
    20  H    0.112883
    21  H    0.139080
    22  S    0.195354
    23  N    0.035300
    24  C   -0.294240
    25  C    0.042002
    26  C   -0.022498
    27  C   -0.218475
    28  C   -0.178979
    29  C    0.138789
    30  H    0.126813
    31  H    0.124784
    32  H    0.120064
    33  H    0.107799
    34  C   -0.090979
    35  C   -0.099838
    36  C   -0.103217
    37  C   -0.145785
    38  C   -0.187106
    39  C    0.090861
    40  H    0.118441
    41  H    0.179350
    42  H    0.100550
    43  H    0.162457
    44  N    0.009957
    45  C   -0.081015
    46  C   -0.101581
    47  C   -0.083387
    48  C   -0.170947
    49  C   -0.199482
    50  C    0.114309
    51  H    0.139650
    52  H    0.141303
    53  H    0.100696
    54  H    0.110327
    55  C   -0.101509
    56  C   -0.067007
    57  C   -0.134030
    58  C   -0.202729
    59  C   -0.139428
    60  C    0.103506
    61  H    0.130579
    62  H    0.145657
    63  H    0.108527
    64  H    0.124135
    65  O   -0.244455
    66  H    0.267426
    67  O   -0.235151
    68  H    0.269914
    69  O   -0.245544
    70  H    0.265608
    71  O   -0.245748
    72  H    0.267010
 Sum of Mulliken charges =  -0.00000

 Dipole moment (field-independent basis, Debye):
    X=              6.6551    Y=              0.8031    Z=              4.9386  Tot=              8.3262
 Quadrupole moment (field-independent basis, Debye-Ang):
   XX=           -225.1106   YY=           -244.9734   ZZ=           -267.4472
   XY=             10.6769   XZ=              1.1509   YZ=             -6.0706

 Normal termination of Gaussian 16 at Thu Jan 21 17:32:59 2021.
