 Gaussian 16, Revision A.03,
 Gaussian 16:  EM64L-G16RevA.03 25-Dec-2016

 ----------------------------------------------------------------------
 #P LC-wHPBE/TZVP iop(3/107=0115700000, 3/108=0115700000) scf=(conver=6
 ,fermi,ndamp=35,noincfock,novaracc,vshift=500,xqc)
 ----------------------------------------------------------------------

 ----------------
 H28 C36 S2 N2 O4
 ----------------
 Symbolic Z-matrix:
 Charge =  1 Multiplicity = 2

                         Standard orientation:
 ---------------------------------------------------------------------
 Center     Atomic      Atomic             Coordinates (Angstroms)
 Number     Number       Type             X           Y           Z
 ---------------------------------------------------------------------
      1          6           0       -1.748928    0.489907   -0.452051
      2          6           0       -0.626174    1.279763   -0.152570
      3         16           0        1.952753    5.388628   -0.812439
      4          6           0       -0.882312    2.170069    0.820725
      5          6           0        1.932708    2.897266    0.476539
      6          6           0        2.566514    3.761438   -0.418550
      7          6           0       -2.975354    0.631957    0.195801
      8          6           0       -2.049066    2.386893    1.545961
      9          1           0        0.246316    4.468801    0.586079
     10          6           0        2.384401    1.613824    0.700024
     11          6           0        3.673888    3.269502   -1.095477
     12          6           0        4.135912    1.984797   -0.893895
     13          6           0        3.494497    1.125461    0.002977
     14          1           0        1.857267    0.971131    1.395345
     15          1           0        4.176334    3.912174   -1.811785
     16          1           0        4.992977    1.632150   -1.456718
     17          6           0       -3.122467    1.590215    1.210611
     18          1           0       -1.688273   -0.276733   -1.226088
     19          1           0        2.539000    6.051116    0.206249
     20          1           0       -2.132551    3.120151    2.347153
     21          1           0       -4.068236    1.688167    1.734116
     22         16           0        0.491419    3.391365    1.378930
     23          7           0        3.940024   -0.175839    0.195205
     24          6           0        5.265040   -0.539150   -0.184549
     25          6           0        5.479402   -1.520085   -1.147894
     26          6           0        6.360048    0.068673    0.412912
     27          6           0        6.761446   -1.889048   -1.505778
     28          6           0        7.649207   -0.280692    0.044528
     29          6           0        7.852726   -1.265560   -0.913210
     30          1           0        4.624132   -2.002234   -1.612555
     31          1           0        6.198832    0.830082    1.170918
     32          1           0        6.936355   -2.656092   -2.253454
     33          1           0        8.499101    0.206598    0.518215
     34          6           0        3.067884   -1.217797    0.624973
     35          6           0        3.533169   -2.175669    1.516644
     36          6           0        1.768428   -1.324352    0.133595
     37          6           0        2.723890   -3.230889    1.904642
     38          6           0        0.952027   -2.363639    0.537000
     39          6           0        1.429133   -3.326131    1.415171
     40          1           0        4.545758   -2.102962    1.902377
     41          1           0        1.364259   -0.566763   -0.534909
     42          1           0        3.106488   -3.978127    2.597301
     43          1           0       -0.063643   -2.437107    0.162477
     44          7           0       -4.071583   -0.199288   -0.137893
     45          6           0       -5.379657    0.330758   -0.192504
     46          6           0       -6.464072   -0.381862    0.308117
     47          6           0       -5.615898    1.583782   -0.758482
     48          6           0       -7.748035    0.135409    0.237366
     49          6           0       -6.890741    2.113870   -0.808775
     50          6           0       -7.966332    1.388715   -0.314728
     51          1           0       -6.301182   -1.359246    0.752201
     52          1           0       -4.779992    2.148147   -1.160920
     53          1           0       -8.582756   -0.442294    0.630527
     54          1           0       -7.071352    3.090185   -1.247847
     55          6           0       -3.863071   -1.579858   -0.373004
     56          6           0       -4.488297   -2.228332   -1.435995
     57          6           0       -3.028002   -2.320518    0.455690
     58          6           0       -4.288516   -3.577498   -1.662294
     59          6           0       -2.802155   -3.666597    0.218956
     60          6           0       -3.435225   -4.300687   -0.840523
     61          1           0       -5.141183   -1.661753   -2.093518
     62          1           0       -2.533592   -1.828985    1.288374
     63          1           0       -4.774148   -4.081779   -2.492022
     64          1           0       -2.125658   -4.220184    0.867724
     65          8           0        0.584592   -4.343911    1.769173
     66          1           0        1.030590   -4.920168    2.399784
     67          8           0        9.095256   -1.661445   -1.308356
     68          1           0        9.763222   -1.159512   -0.827959
     69          8           0       -9.209724    1.953542   -0.400297
     70          1           0       -9.859516    1.347058   -0.028653
     71          8           0       -3.254007   -5.627948   -1.116747
     72          1           0       -2.609433   -5.991357   -0.499352
 ---------------------------------------------------------------------

 SCF Done:  E(ULC-wHPBE) =  -2593.61175722     A.U. after   33 cycles
 SCF Done:  E(ULC-wHPBE) =  -2593.61184485     a.u. after    2 cycles

 The electronic state is 2-A.
 Alpha  occ. eigenvalues --  -88.34470 -88.26581 -18.94172 -18.93770 -18.93373
 Alpha  occ. eigenvalues --  -18.92069 -14.21751 -14.18074 -10.11113 -10.10958
 Alpha  occ. eigenvalues --  -10.10710 -10.10684 -10.10327 -10.09966 -10.09464
 Alpha  occ. eigenvalues --  -10.09306 -10.09257 -10.09099 -10.08880 -10.07540
 Alpha  occ. eigenvalues --  -10.07284 -10.06604 -10.06495 -10.06404 -10.06362
 Alpha  occ. eigenvalues --  -10.05883 -10.05845 -10.05659 -10.05571 -10.05384
 Alpha  occ. eigenvalues --  -10.05156 -10.05141 -10.05017 -10.04998 -10.04708
 Alpha  occ. eigenvalues --  -10.04439 -10.03866 -10.03791 -10.03740 -10.03664
 Alpha  occ. eigenvalues --  -10.03380 -10.03365 -10.03299 -10.02632  -7.93466
 Alpha  occ. eigenvalues --   -7.85751  -5.95453  -5.95344  -5.94782  -5.87982
 Alpha  occ. eigenvalues --   -5.87557  -5.86836  -1.13668  -1.13271  -1.12855
 Alpha  occ. eigenvalues --   -1.11791  -1.07615  -1.05139  -0.99399  -0.96813
 Alpha  occ. eigenvalues --   -0.95527  -0.94275  -0.93691  -0.93096  -0.92020
 Alpha  occ. eigenvalues --   -0.88958  -0.86825  -0.86215  -0.85245  -0.84940
 Alpha  occ. eigenvalues --   -0.84687  -0.84305  -0.83799  -0.83309  -0.82878
 Alpha  occ. eigenvalues --   -0.82540  -0.80799  -0.78818  -0.74987  -0.74666
 Alpha  occ. eigenvalues --   -0.73555  -0.73289  -0.73023  -0.72235  -0.71890
 Alpha  occ. eigenvalues --   -0.71433  -0.71082  -0.69959  -0.68720  -0.68080
 Alpha  occ. eigenvalues --   -0.66198  -0.66092  -0.65508  -0.65140  -0.64860
 Alpha  occ. eigenvalues --   -0.64681  -0.64125  -0.63423  -0.62040  -0.60599
 Alpha  occ. eigenvalues --   -0.60257  -0.59679  -0.58922  -0.58658  -0.58261
 Alpha  occ. eigenvalues --   -0.57069  -0.56968  -0.56566  -0.56073  -0.55858
 Alpha  occ. eigenvalues --   -0.55831  -0.54911  -0.54309  -0.54091  -0.54033
 Alpha  occ. eigenvalues --   -0.53921  -0.53804  -0.53218  -0.53036  -0.52917
 Alpha  occ. eigenvalues --   -0.52706  -0.52355  -0.52219  -0.52083  -0.51815
 Alpha  occ. eigenvalues --   -0.51523  -0.51474  -0.50954  -0.50492  -0.50166
 Alpha  occ. eigenvalues --   -0.49623  -0.49177  -0.48986  -0.48411  -0.48159
 Alpha  occ. eigenvalues --   -0.47827  -0.47421  -0.47087  -0.47058  -0.46102
 Alpha  occ. eigenvalues --   -0.45951  -0.45686  -0.45060  -0.44877  -0.44076
 Alpha  occ. eigenvalues --   -0.43782  -0.42457  -0.40498  -0.40107  -0.39710
 Alpha  occ. eigenvalues --   -0.39506  -0.39071  -0.38500  -0.38101  -0.37638
 Alpha  occ. eigenvalues --   -0.36925  -0.36693  -0.35715  -0.34896  -0.32417
 Alpha  occ. eigenvalues --   -0.30840
 Alpha virt. eigenvalues --   -0.11644  -0.10830  -0.10305  -0.09295  -0.08233
 Alpha virt. eigenvalues --   -0.08066  -0.07913  -0.07647  -0.07454  -0.06622
 Alpha virt. eigenvalues --   -0.06064  -0.05965  -0.04559  -0.04266  -0.03599

  Beta  occ. eigenvalues --  -88.34462 -88.26579 -18.94106 -18.93722 -18.93369
  Beta  occ. eigenvalues --  -18.92068 -14.21347 -14.18052 -10.11033 -10.10954
  Beta  occ. eigenvalues --  -10.10652 -10.10650 -10.10247 -10.09963 -10.09459
  Beta  occ. eigenvalues --  -10.09305 -10.09254 -10.09103 -10.08879 -10.07526
  Beta  occ. eigenvalues --  -10.07287 -10.06605 -10.06458 -10.06357 -10.06318
  Beta  occ. eigenvalues --  -10.05880 -10.05777 -10.05595 -10.05512 -10.05335
  Beta  occ. eigenvalues --  -10.05168 -10.05026 -10.04996 -10.04720 -10.04549
  Beta  occ. eigenvalues --  -10.04450 -10.03861 -10.03792 -10.03735 -10.03661
  Beta  occ. eigenvalues --  -10.03378 -10.03364 -10.03299 -10.02632  -7.93457
  Beta  occ. eigenvalues --   -7.85749  -5.95444  -5.95328  -5.94775  -5.87981
  Beta  occ. eigenvalues --   -5.87555  -5.86832  -1.13550  -1.13184  -1.12848
  Beta  occ. eigenvalues --   -1.11789  -1.07099  -1.05112  -0.99325  -0.96606
  Beta  occ. eigenvalues --   -0.95412  -0.94169  -0.93674  -0.93018  -0.91981
  Beta  occ. eigenvalues --   -0.88944  -0.86687  -0.86006  -0.85076  -0.84832
  Beta  occ. eigenvalues --   -0.84555  -0.84227  -0.83783  -0.83286  -0.82865
  Beta  occ. eigenvalues --   -0.82523  -0.80558  -0.78799  -0.74852  -0.74541
  Beta  occ. eigenvalues --   -0.73521  -0.73165  -0.72900  -0.72114  -0.71846
  Beta  occ. eigenvalues --   -0.71322  -0.71061  -0.69946  -0.68605  -0.68018
  Beta  occ. eigenvalues --   -0.66106  -0.66028  -0.65488  -0.64956  -0.64833
  Beta  occ. eigenvalues --   -0.64550  -0.64119  -0.63373  -0.61950  -0.60358
  Beta  occ. eigenvalues --   -0.60224  -0.59620  -0.58788  -0.58620  -0.58104
  Beta  occ. eigenvalues --   -0.57056  -0.56938  -0.56423  -0.56025  -0.55804
  Beta  occ. eigenvalues --   -0.55770  -0.54872  -0.54267  -0.54077  -0.53991
  Beta  occ. eigenvalues --   -0.53878  -0.53700  -0.53093  -0.52983  -0.52692
  Beta  occ. eigenvalues --   -0.52601  -0.52350  -0.52135  -0.51955  -0.51796
  Beta  occ. eigenvalues --   -0.51365  -0.51264  -0.50933  -0.50424  -0.50029
  Beta  occ. eigenvalues --   -0.49486  -0.49127  -0.48933  -0.48276  -0.48060
  Beta  occ. eigenvalues --   -0.47606  -0.47389  -0.47033  -0.46822  -0.46055
  Beta  occ. eigenvalues --   -0.45903  -0.45637  -0.45047  -0.44852  -0.44074
  Beta  occ. eigenvalues --   -0.43274  -0.42401  -0.40253  -0.39924  -0.39410
  Beta  occ. eigenvalues --   -0.39266  -0.38961  -0.38239  -0.38060  -0.37599
  Beta  occ. eigenvalues --   -0.36816  -0.36160  -0.34891  -0.31819  -0.30639
  Beta virt. eigenvalues --   -0.21404  -0.11450  -0.10650  -0.10039  -0.09173
  Beta virt. eigenvalues --   -0.08036  -0.07754  -0.07675  -0.07481  -0.07266
  Beta virt. eigenvalues --   -0.06564  -0.06049  -0.05908  -0.04338  -0.04045

 Mulliken charges and spin densities:
               1          2
     1  C   -0.237229   0.058844
     2  C    0.083312   0.387414
     3  S   -0.049602   0.003077
     4  C   -0.305317   0.013504
     5  C    0.082743  -0.019805
     6  C   -0.285086   0.001861
     7  C   -0.011222   0.017063
     8  C   -0.040798   0.003582
     9  H    0.142239   0.002012
    10  C   -0.173047   0.018835
    11  C   -0.029136   0.001660
    12  C   -0.075494   0.001947
    13  C    0.023803   0.000058
    14  H    0.230547   0.000031
    15  H    0.141610  -0.000118
    16  H    0.171115  -0.000047
    17  C   -0.145382   0.018239
    18  H    0.173454   0.012703
    19  H    0.132391   0.000166
    20  H    0.159722   0.008563
    21  H    0.170324  -0.000632
    22  S    0.249114   0.011798
    23  N    0.046518   0.010804
    24  C   -0.288364  -0.000142
    25  C    0.035586   0.001153
    26  C   -0.030638   0.001430
    27  C   -0.208288  -0.000420
    28  C   -0.165385  -0.000582
    29  C    0.136731   0.001305
    30  H    0.122977  -0.000059
    31  H    0.125723  -0.000062
    32  H    0.131585   0.000048
    33  H    0.120002   0.000031
    34  C   -0.087831  -0.000815
    35  C   -0.090213   0.004180
    36  C   -0.130923   0.000748
    37  C   -0.130153  -0.002023
    38  C   -0.171901   0.000653
    39  C    0.093367   0.003848
    40  H    0.133709  -0.000070
    41  H    0.171391   0.000648
    42  H    0.119377   0.000071
    43  H    0.145350   0.000446
    44  N    0.068487   0.188356
    45  C   -0.087436   0.002408
    46  C   -0.090853   0.037738
    47  C   -0.078019   0.032281
    48  C   -0.148812  -0.011931
    49  C   -0.183307  -0.012448
    50  C    0.119356   0.042577
    51  H    0.157079  -0.001778
    52  H    0.151277  -0.001232
    53  H    0.131222   0.000920
    54  H    0.141009   0.000593
    55  C   -0.121731   0.004531
    56  C   -0.054541   0.042907
    57  C   -0.130019   0.047400
    58  C   -0.183437  -0.014589
    59  C   -0.115583  -0.015309
    60  C    0.114372   0.057340
    61  H    0.153147  -0.002024
    62  H    0.157125  -0.002263
    63  H    0.143433   0.000804
    64  H    0.146767   0.000618
    65  O   -0.249549   0.001460
    66  H    0.279550  -0.000027
    67  O   -0.222695   0.000467
    68  H    0.276785  -0.000012
    69  O   -0.213339   0.016941
    70  H    0.280859  -0.000401
    71  O   -0.209491   0.023297
    72  H    0.281657  -0.000574
 Sum of Mulliken charges =   1.00000   1.00000

 Dipole moment (field-independent basis, Debye):
    X=             -2.0894    Y=              1.9009    Z=              4.6259  Tot=              5.4202
 Quadrupole moment (field-independent basis, Debye-Ang):
   XX=           -113.7920   YY=           -198.7819   ZZ=           -255.7871
   XY=             13.9443   XZ=              3.1008   YZ=             -3.0149

 Normal termination of Gaussian 16 at Thu Jan 21 16:56:42 2021.
