 Gaussian 16, Revision A.03,
 Gaussian 16:  EM64L-G16RevA.03 25-Dec-2016

 ----------------------------------------------------------------------
 #P LC-wHPBE/TZVP iop(3/107=0167500000, 3/108=0167500000) scf=(conver=6
 ,fermi,ndamp=35,noincfock,novaracc,vshift=500,xqc)
 ----------------------------------------------------------------------

 ----------------
 H28 C36 S2 N2 O4
 ----------------
 Symbolic Z-matrix:
 Charge =  1 Multiplicity = 2

                         Standard orientation:
 ---------------------------------------------------------------------
 Center     Atomic      Atomic             Coordinates (Angstroms)
 Number     Number       Type             X           Y           Z
 ---------------------------------------------------------------------
      1          6           0       -1.748928    0.489907   -0.452051
      2          6           0       -0.626174    1.279763   -0.152570
      3         16           0        1.952753    5.388628   -0.812439
      4          6           0       -0.882312    2.170069    0.820725
      5          6           0        1.932708    2.897266    0.476539
      6          6           0        2.566514    3.761438   -0.418550
      7          6           0       -2.975354    0.631957    0.195801
      8          6           0       -2.049066    2.386893    1.545961
      9          1           0        0.246316    4.468801    0.586079
     10          6           0        2.384401    1.613824    0.700024
     11          6           0        3.673888    3.269502   -1.095477
     12          6           0        4.135912    1.984797   -0.893895
     13          6           0        3.494497    1.125461    0.002977
     14          1           0        1.857267    0.971131    1.395345
     15          1           0        4.176334    3.912174   -1.811785
     16          1           0        4.992977    1.632150   -1.456718
     17          6           0       -3.122467    1.590215    1.210611
     18          1           0       -1.688273   -0.276733   -1.226088
     19          1           0        2.539000    6.051116    0.206249
     20          1           0       -2.132551    3.120151    2.347153
     21          1           0       -4.068236    1.688167    1.734116
     22         16           0        0.491419    3.391365    1.378930
     23          7           0        3.940024   -0.175839    0.195205
     24          6           0        5.265040   -0.539150   -0.184549
     25          6           0        5.479402   -1.520085   -1.147894
     26          6           0        6.360048    0.068673    0.412912
     27          6           0        6.761446   -1.889048   -1.505778
     28          6           0        7.649207   -0.280692    0.044528
     29          6           0        7.852726   -1.265560   -0.913210
     30          1           0        4.624132   -2.002234   -1.612555
     31          1           0        6.198832    0.830082    1.170918
     32          1           0        6.936355   -2.656092   -2.253454
     33          1           0        8.499101    0.206598    0.518215
     34          6           0        3.067884   -1.217797    0.624973
     35          6           0        3.533169   -2.175669    1.516644
     36          6           0        1.768428   -1.324352    0.133595
     37          6           0        2.723890   -3.230889    1.904642
     38          6           0        0.952027   -2.363639    0.537000
     39          6           0        1.429133   -3.326131    1.415171
     40          1           0        4.545758   -2.102962    1.902377
     41          1           0        1.364259   -0.566763   -0.534909
     42          1           0        3.106488   -3.978127    2.597301
     43          1           0       -0.063643   -2.437107    0.162477
     44          7           0       -4.071583   -0.199288   -0.137893
     45          6           0       -5.379657    0.330758   -0.192504
     46          6           0       -6.464072   -0.381862    0.308117
     47          6           0       -5.615898    1.583782   -0.758482
     48          6           0       -7.748035    0.135409    0.237366
     49          6           0       -6.890741    2.113870   -0.808775
     50          6           0       -7.966332    1.388715   -0.314728
     51          1           0       -6.301182   -1.359246    0.752201
     52          1           0       -4.779992    2.148147   -1.160920
     53          1           0       -8.582756   -0.442294    0.630527
     54          1           0       -7.071352    3.090185   -1.247847
     55          6           0       -3.863071   -1.579858   -0.373004
     56          6           0       -4.488297   -2.228332   -1.435995
     57          6           0       -3.028002   -2.320518    0.455690
     58          6           0       -4.288516   -3.577498   -1.662294
     59          6           0       -2.802155   -3.666597    0.218956
     60          6           0       -3.435225   -4.300687   -0.840523
     61          1           0       -5.141183   -1.661753   -2.093518
     62          1           0       -2.533592   -1.828985    1.288374
     63          1           0       -4.774148   -4.081779   -2.492022
     64          1           0       -2.125658   -4.220184    0.867724
     65          8           0        0.584592   -4.343911    1.769173
     66          1           0        1.030590   -4.920168    2.399784
     67          8           0        9.095256   -1.661445   -1.308356
     68          1           0        9.763222   -1.159512   -0.827959
     69          8           0       -9.209724    1.953542   -0.400297
     70          1           0       -9.859516    1.347058   -0.028653
     71          8           0       -3.254007   -5.627948   -1.116747
     72          1           0       -2.609433   -5.991357   -0.499352
 ---------------------------------------------------------------------

 SCF Done:  E(ULC-wHPBE) =  -2593.72537423     A.U. after   33 cycles
 SCF Done:  E(ULC-wHPBE) =  -2593.72552824     a.u. after    2 cycles

 The electronic state is 2-A.
 Alpha  occ. eigenvalues --  -88.37997 -88.29645 -18.96680 -18.96280 -18.96124
 Alpha  occ. eigenvalues --  -18.94824 -14.24572 -14.20824 -10.14284 -10.14067
 Alpha  occ. eigenvalues --  -10.13959 -10.13857 -10.13438 -10.13171 -10.12473
 Alpha  occ. eigenvalues --  -10.12421 -10.12050 -10.11837 -10.11828 -10.10920
 Alpha  occ. eigenvalues --  -10.10260 -10.09788 -10.09746 -10.09533 -10.09513
 Alpha  occ. eigenvalues --  -10.09055 -10.09046 -10.08649 -10.08430 -10.08325
 Alpha  occ. eigenvalues --  -10.08175 -10.08096 -10.07865 -10.07724 -10.07418
 Alpha  occ. eigenvalues --  -10.07152 -10.06806 -10.06748 -10.06722 -10.06601
 Alpha  occ. eigenvalues --  -10.06306 -10.06303 -10.06206 -10.05527  -7.97015
 Alpha  occ. eigenvalues --   -7.88850  -5.98964  -5.98861  -5.98283  -5.91049
 Alpha  occ. eigenvalues --   -5.90614  -5.89885  -1.16335  -1.15935  -1.15745
 Alpha  occ. eigenvalues --   -1.14685  -1.10643  -1.08196  -1.02927  -1.00275
 Alpha  occ. eigenvalues --   -0.98414  -0.97357  -0.96767  -0.96274  -0.95204
 Alpha  occ. eigenvalues --   -0.92179  -0.90059  -0.89419  -0.88276  -0.87956
 Alpha  occ. eigenvalues --   -0.87529  -0.87341  -0.86843  -0.86360  -0.85876
 Alpha  occ. eigenvalues --   -0.85596  -0.83741  -0.81812  -0.77844  -0.77574
 Alpha  occ. eigenvalues --   -0.76477  -0.76254  -0.75904  -0.75031  -0.74762
 Alpha  occ. eigenvalues --   -0.74283  -0.73955  -0.72815  -0.71510  -0.70949
 Alpha  occ. eigenvalues --   -0.68873  -0.68657  -0.68276  -0.67989  -0.67645
 Alpha  occ. eigenvalues --   -0.67245  -0.66835  -0.66169  -0.64853  -0.63344
 Alpha  occ. eigenvalues --   -0.63060  -0.62463  -0.61669  -0.61391  -0.60855
 Alpha  occ. eigenvalues --   -0.59764  -0.59707  -0.59446  -0.58837  -0.58360
 Alpha  occ. eigenvalues --   -0.58269  -0.57656  -0.56835  -0.56650  -0.56520
 Alpha  occ. eigenvalues --   -0.56440  -0.56258  -0.55855  -0.55675  -0.55425
 Alpha  occ. eigenvalues --   -0.55215  -0.54903  -0.54804  -0.54739  -0.54486
 Alpha  occ. eigenvalues --   -0.54255  -0.53988  -0.53630  -0.53120  -0.52621
 Alpha  occ. eigenvalues --   -0.52088  -0.51678  -0.51258  -0.50950  -0.50694
 Alpha  occ. eigenvalues --   -0.50249  -0.49924  -0.49522  -0.49440  -0.48580
 Alpha  occ. eigenvalues --   -0.48197  -0.47851  -0.47574  -0.47263  -0.46434
 Alpha  occ. eigenvalues --   -0.46294  -0.44919  -0.42930  -0.42444  -0.42043
 Alpha  occ. eigenvalues --   -0.41569  -0.41175  -0.40718  -0.40285  -0.39829
 Alpha  occ. eigenvalues --   -0.39278  -0.38803  -0.38319  -0.36923  -0.34116
 Alpha  occ. eigenvalues --   -0.32592
 Alpha virt. eigenvalues --   -0.10318  -0.09471  -0.08843  -0.07725  -0.06541
 Alpha virt. eigenvalues --   -0.06290  -0.06214  -0.05882  -0.05544  -0.04915
 Alpha virt. eigenvalues --   -0.04304  -0.04200  -0.02680  -0.02564  -0.01877

  Beta  occ. eigenvalues --  -88.37989 -88.29644 -18.96625 -18.96242 -18.96123
  Beta  occ. eigenvalues --  -18.94823 -14.24162 -14.20813 -10.14279 -10.14026
  Beta  occ. eigenvalues --  -10.13881 -10.13779 -10.13383 -10.13166 -10.12474
  Beta  occ. eigenvalues --  -10.12419 -10.12063 -10.11854 -10.11827 -10.10900
  Beta  occ. eigenvalues --  -10.10262 -10.09715 -10.09702 -10.09534 -10.09511
  Beta  occ. eigenvalues --  -10.09051 -10.08579 -10.08364 -10.08363 -10.08266
  Beta  occ. eigenvalues --  -10.08126 -10.08097 -10.07885 -10.07738 -10.07436
  Beta  occ. eigenvalues --  -10.07168 -10.06804 -10.06743 -10.06723 -10.06600
  Beta  occ. eigenvalues --  -10.06305 -10.06302 -10.06206 -10.05527  -7.97006
  Beta  occ. eigenvalues --   -7.88849  -5.98955  -5.98843  -5.98275  -5.91048
  Beta  occ. eigenvalues --   -5.90613  -5.89881  -1.16233  -1.15865  -1.15742
  Beta  occ. eigenvalues --   -1.14684  -1.10131  -1.08181  -1.02840  -1.00046
  Beta  occ. eigenvalues --   -0.98313  -0.97276  -0.96749  -0.96174  -0.95172
  Beta  occ. eigenvalues --   -0.92170  -0.89909  -0.89110  -0.88089  -0.87897
  Beta  occ. eigenvalues --   -0.87430  -0.87270  -0.86828  -0.86343  -0.85868
  Beta  occ. eigenvalues --   -0.85582  -0.83490  -0.81798  -0.77689  -0.77420
  Beta  occ. eigenvalues --   -0.76431  -0.76116  -0.75787  -0.74926  -0.74726
  Beta  occ. eigenvalues --   -0.74172  -0.73931  -0.72803  -0.71398  -0.70864
  Beta  occ. eigenvalues --   -0.68747  -0.68595  -0.68260  -0.67782  -0.67629
  Beta  occ. eigenvalues --   -0.67135  -0.66827  -0.66106  -0.64760  -0.63117
  Beta  occ. eigenvalues --   -0.62981  -0.62387  -0.61502  -0.61352  -0.60728
  Beta  occ. eigenvalues --   -0.59728  -0.59668  -0.59305  -0.58792  -0.58298
  Beta  occ. eigenvalues --   -0.58213  -0.57601  -0.56800  -0.56634  -0.56499
  Beta  occ. eigenvalues --   -0.56366  -0.56167  -0.55725  -0.55613  -0.55222
  Beta  occ. eigenvalues --   -0.55123  -0.54896  -0.54710  -0.54533  -0.54466
  Beta  occ. eigenvalues --   -0.54050  -0.53878  -0.53602  -0.53037  -0.52491
  Beta  occ. eigenvalues --   -0.51903  -0.51630  -0.51196  -0.50808  -0.50611
  Beta  occ. eigenvalues --   -0.50025  -0.49888  -0.49503  -0.49152  -0.48561
  Beta  occ. eigenvalues --   -0.48122  -0.47807  -0.47565  -0.47227  -0.46432
  Beta  occ. eigenvalues --   -0.45681  -0.44859  -0.42628  -0.42255  -0.41658
  Beta  occ. eigenvalues --   -0.41375  -0.41038  -0.40377  -0.40204  -0.39732
  Beta  occ. eigenvalues --   -0.38937  -0.37897  -0.36921  -0.33136  -0.32337
  Beta virt. eigenvalues --   -0.20826  -0.10091  -0.09267  -0.08538  -0.07566
  Beta virt. eigenvalues --   -0.06385  -0.06009  -0.05898  -0.05717  -0.05313
  Beta virt. eigenvalues --   -0.04859  -0.04260  -0.04180  -0.02584  -0.02252

 Mulliken charges and spin densities:
               1          2
     1  C   -0.230704   0.057201
     2  C    0.090268   0.444521
     3  S   -0.047366   0.002468
     4  C   -0.301576   0.007341
     5  C    0.073402  -0.018872
     6  C   -0.289050  -0.001245
     7  C   -0.013658   0.021452
     8  C   -0.044252   0.006867
     9  H    0.147671   0.001861
    10  C   -0.178516   0.018986
    11  C   -0.032738   0.003381
    12  C   -0.079572  -0.000523
    13  C    0.027405   0.000455
    14  H    0.236484  -0.000069
    15  H    0.145944  -0.000180
    16  H    0.176871   0.000078
    17  C   -0.143222   0.013231
    18  H    0.181251   0.014776
    19  H    0.132318  -0.000052
    20  H    0.165175   0.008878
    21  H    0.176231  -0.000356
    22  S    0.261372   0.013043
    23  N    0.033737   0.005431
    24  C   -0.288262  -0.000148
    25  C    0.037941   0.000564
    26  C   -0.026842   0.000636
    27  C   -0.215858  -0.000237
    28  C   -0.173492  -0.000361
    29  C    0.137960   0.000556
    30  H    0.125722  -0.000032
    31  H    0.128018  -0.000031
    32  H    0.133468   0.000024
    33  H    0.122111   0.000017
    34  C   -0.086268  -0.000448
    35  C   -0.091050   0.002496
    36  C   -0.131151   0.000183
    37  C   -0.136539  -0.001351
    38  C   -0.176499   0.000405
    39  C    0.092323   0.001962
    40  H    0.136733   0.000008
    41  H    0.174249   0.000268
    42  H    0.121665   0.000052
    43  H    0.147074   0.000474
    44  N    0.059080   0.191808
    45  C   -0.088087  -0.006930
    46  C   -0.090795   0.038228
    47  C   -0.077345   0.032859
    48  C   -0.156518  -0.015264
    49  C   -0.191103  -0.016638
    50  C    0.119429   0.039577
    51  H    0.160212  -0.001754
    52  H    0.152462  -0.001236
    53  H    0.132570   0.001044
    54  H    0.141556   0.000778
    55  C   -0.125838  -0.006263
    56  C   -0.051779   0.045687
    57  C   -0.129674   0.049839
    58  C   -0.191443  -0.019497
    59  C   -0.122731  -0.021896
    60  C    0.113090   0.056496
    61  H    0.156321  -0.002108
    62  H    0.158862  -0.002374
    63  H    0.144397   0.000985
    64  H    0.149831   0.000921
    65  O   -0.248661   0.000560
    66  H    0.279378  -0.000002
    67  O   -0.222511   0.000157
    68  H    0.276421  -0.000004
    69  O   -0.215254   0.012993
    70  H    0.279910  -0.000309
    71  O   -0.211275   0.019113
    72  H    0.280718  -0.000479
 Sum of Mulliken charges =   1.00000   1.00000

 Dipole moment (field-independent basis, Debye):
    X=             -1.6007    Y=              2.5319    Z=              4.7896  Tot=              5.6491
 Quadrupole moment (field-independent basis, Debye-Ang):
   XX=           -119.4893   YY=           -198.9678   ZZ=           -255.3429
   XY=             14.2803   XZ=              2.7688   YZ=             -2.7686

 Normal termination of Gaussian 16 at Fri Jan 22 00:29:03 2021.
