 Gaussian 16, Revision A.03,
 Gaussian 16:  EM64L-G16RevA.03 25-Dec-2016

 ----------------------------------------------------------------------
 #P LC-wHPBE/TZVP iop(3/107=0221900000, 3/108=0221900000) scf=(conver=6
 ,fermi,ndamp=35,noincfock,novaracc,vshift=500,xqc)
 ----------------------------------------------------------------------

 ----------------
 H28 C36 S2 N2 O4
 ----------------
 Symbolic Z-matrix:
 Charge =  0 Multiplicity = 1

                         Standard orientation:
 ---------------------------------------------------------------------
 Center     Atomic      Atomic             Coordinates (Angstroms)
 Number     Number       Type             X           Y           Z
 ---------------------------------------------------------------------
      1          6           0       -1.748928    0.489907   -0.452051
      2          6           0       -0.626174    1.279763   -0.152570
      3         16           0        1.952753    5.388628   -0.812439
      4          6           0       -0.882312    2.170069    0.820725
      5          6           0        1.932708    2.897266    0.476539
      6          6           0        2.566514    3.761438   -0.418550
      7          6           0       -2.975354    0.631957    0.195801
      8          6           0       -2.049066    2.386893    1.545961
      9          1           0        0.246316    4.468801    0.586079
     10          6           0        2.384401    1.613824    0.700024
     11          6           0        3.673888    3.269502   -1.095477
     12          6           0        4.135912    1.984797   -0.893895
     13          6           0        3.494497    1.125461    0.002977
     14          1           0        1.857267    0.971131    1.395345
     15          1           0        4.176334    3.912174   -1.811785
     16          1           0        4.992977    1.632150   -1.456718
     17          6           0       -3.122467    1.590215    1.210611
     18          1           0       -1.688273   -0.276733   -1.226088
     19          1           0        2.539000    6.051116    0.206249
     20          1           0       -2.132551    3.120151    2.347153
     21          1           0       -4.068236    1.688167    1.734116
     22         16           0        0.491419    3.391365    1.378930
     23          7           0        3.940024   -0.175839    0.195205
     24          6           0        5.265040   -0.539150   -0.184549
     25          6           0        5.479402   -1.520085   -1.147894
     26          6           0        6.360048    0.068673    0.412912
     27          6           0        6.761446   -1.889048   -1.505778
     28          6           0        7.649207   -0.280692    0.044528
     29          6           0        7.852726   -1.265560   -0.913210
     30          1           0        4.624132   -2.002234   -1.612555
     31          1           0        6.198832    0.830082    1.170918
     32          1           0        6.936355   -2.656092   -2.253454
     33          1           0        8.499101    0.206598    0.518215
     34          6           0        3.067884   -1.217797    0.624973
     35          6           0        3.533169   -2.175669    1.516644
     36          6           0        1.768428   -1.324352    0.133595
     37          6           0        2.723890   -3.230889    1.904642
     38          6           0        0.952027   -2.363639    0.537000
     39          6           0        1.429133   -3.326131    1.415171
     40          1           0        4.545758   -2.102962    1.902377
     41          1           0        1.364259   -0.566763   -0.534909
     42          1           0        3.106488   -3.978127    2.597301
     43          1           0       -0.063643   -2.437107    0.162477
     44          7           0       -4.071583   -0.199288   -0.137893
     45          6           0       -5.379657    0.330758   -0.192504
     46          6           0       -6.464072   -0.381862    0.308117
     47          6           0       -5.615898    1.583782   -0.758482
     48          6           0       -7.748035    0.135409    0.237366
     49          6           0       -6.890741    2.113870   -0.808775
     50          6           0       -7.966332    1.388715   -0.314728
     51          1           0       -6.301182   -1.359246    0.752201
     52          1           0       -4.779992    2.148147   -1.160920
     53          1           0       -8.582756   -0.442294    0.630527
     54          1           0       -7.071352    3.090185   -1.247847
     55          6           0       -3.863071   -1.579858   -0.373004
     56          6           0       -4.488297   -2.228332   -1.435995
     57          6           0       -3.028002   -2.320518    0.455690
     58          6           0       -4.288516   -3.577498   -1.662294
     59          6           0       -2.802155   -3.666597    0.218956
     60          6           0       -3.435225   -4.300687   -0.840523
     61          1           0       -5.141183   -1.661753   -2.093518
     62          1           0       -2.533592   -1.828985    1.288374
     63          1           0       -4.774148   -4.081779   -2.492022
     64          1           0       -2.125658   -4.220184    0.867724
     65          8           0        0.584592   -4.343911    1.769173
     66          1           0        1.030590   -4.920168    2.399784
     67          8           0        9.095256   -1.661445   -1.308356
     68          1           0        9.763222   -1.159512   -0.827959
     69          8           0       -9.209724    1.953542   -0.400297
     70          1           0       -9.859516    1.347058   -0.028653
     71          8           0       -3.254007   -5.627948   -1.116747
     72          1           0       -2.609433   -5.991357   -0.499352
 ---------------------------------------------------------------------

 SCF Done:  E(RLC-wHPBE) =  -2594.06066944     A.U. after   20 cycles

 The electronic state is 1-A.
 Alpha  occ. eigenvalues --  -88.28982 -88.23666 -18.91640 -18.90846 -18.89447
 Alpha  occ. eigenvalues --  -18.89199 -14.15126 -14.12004 -10.08392 -10.07412
 Alpha  occ. eigenvalues --  -10.07188 -10.07093 -10.06264 -10.05796 -10.05603
 Alpha  occ. eigenvalues --  -10.05521 -10.04823 -10.03378 -10.03144 -10.03143
 Alpha  occ. eigenvalues --  -10.02928 -10.02779 -10.02727 -10.02715 -10.02446
 Alpha  occ. eigenvalues --  -10.02196 -10.02128 -10.01988 -10.01660 -10.01612
 Alpha  occ. eigenvalues --  -10.00715 -10.00617 -10.00464 -10.00416 -10.00139
 Alpha  occ. eigenvalues --   -9.99982  -9.99948  -9.99875  -9.99864  -9.99776
 Alpha  occ. eigenvalues --   -9.99606  -9.99031  -9.97804  -9.93978  -7.88123
 Alpha  occ. eigenvalues --   -7.82952  -5.90063  -5.89838  -5.89300  -5.85095
 Alpha  occ. eigenvalues --   -5.84653  -5.83883  -1.11685  -1.10660  -1.09338
 Alpha  occ. eigenvalues --   -1.09111  -1.02941  -0.99932  -0.95657  -0.92477
 Alpha  occ. eigenvalues --   -0.91312  -0.90350  -0.90300  -0.89142  -0.87274
 Alpha  occ. eigenvalues --   -0.86304  -0.82710  -0.82250  -0.81284  -0.81065
 Alpha  occ. eigenvalues --   -0.80357  -0.80280  -0.80162  -0.79547  -0.78541
 Alpha  occ. eigenvalues --   -0.77262  -0.76392  -0.74484  -0.71282  -0.70436
 Alpha  occ. eigenvalues --   -0.69701  -0.68979  -0.68792  -0.68363  -0.67197
 Alpha  occ. eigenvalues --   -0.66757  -0.65798  -0.65202  -0.64524  -0.63055
 Alpha  occ. eigenvalues --   -0.62380  -0.61765  -0.61668  -0.60717  -0.60344
 Alpha  occ. eigenvalues --   -0.60140  -0.58237  -0.57485  -0.57095  -0.56434
 Alpha  occ. eigenvalues --   -0.55981  -0.54672  -0.54083  -0.53365  -0.52701
 Alpha  occ. eigenvalues --   -0.52454  -0.52003  -0.51792  -0.51298  -0.50695
 Alpha  occ. eigenvalues --   -0.50533  -0.50227  -0.49996  -0.49859  -0.49563
 Alpha  occ. eigenvalues --   -0.49272  -0.49024  -0.48769  -0.48587  -0.48163
 Alpha  occ. eigenvalues --   -0.47941  -0.47613  -0.47467  -0.47373  -0.46937
 Alpha  occ. eigenvalues --   -0.46775  -0.46140  -0.45972  -0.45367  -0.44713
 Alpha  occ. eigenvalues --   -0.43900  -0.43666  -0.43384  -0.43256  -0.42959
 Alpha  occ. eigenvalues --   -0.42773  -0.42402  -0.42335  -0.41910  -0.41404
 Alpha  occ. eigenvalues --   -0.40902  -0.40676  -0.39871  -0.39519  -0.39153
 Alpha  occ. eigenvalues --   -0.38055  -0.35704  -0.34877  -0.34525  -0.33924
 Alpha  occ. eigenvalues --   -0.33420  -0.32634  -0.32299  -0.31995  -0.31383
 Alpha  occ. eigenvalues --   -0.30495  -0.29898  -0.29157  -0.25840  -0.23419
 Alpha  occ. eigenvalues --   -0.22351
 Alpha virt. eigenvalues --    0.01129   0.02103   0.03713   0.03898   0.04302
 Alpha virt. eigenvalues --    0.04635   0.04961   0.06283   0.06353   0.06703
 Alpha virt. eigenvalues --    0.07254   0.07495   0.08146   0.08452   0.08602

 Mulliken charges:
               1
     1  C   -0.301519
     2  C   -0.098721
     3  S   -0.079747
     4  C   -0.267293
     5  C    0.105216
     6  C   -0.288834
     7  C    0.016020
     8  C   -0.066709
     9  H    0.142272
    10  C   -0.141903
    11  C   -0.046867
    12  C   -0.102789
    13  C    0.019789
    14  H    0.239210
    15  H    0.126426
    16  H    0.164773
    17  C   -0.181451
    18  H    0.135542
    19  H    0.113698
    20  H    0.119955
    21  H    0.145766
    22  S    0.205811
    23  N    0.019514
    24  C   -0.296280
    25  C    0.040107
    26  C   -0.023355
    27  C   -0.224042
    28  C   -0.185604
    29  C    0.136607
    30  H    0.133488
    31  H    0.131471
    32  H    0.125942
    33  H    0.113330
    34  C   -0.093844
    35  C   -0.104183
    36  C   -0.103602
    37  C   -0.151999
    38  C   -0.191129
    39  C    0.089001
    40  H    0.125267
    41  H    0.188419
    42  H    0.106228
    43  H    0.166188
    44  N   -0.006472
    45  C   -0.083781
    46  C   -0.104738
    47  C   -0.084233
    48  C   -0.176288
    49  C   -0.204606
    50  C    0.111339
    51  H    0.146894
    52  H    0.148724
    53  H    0.106352
    54  H    0.116199
    55  C   -0.104519
    56  C   -0.068071
    57  C   -0.135628
    58  C   -0.208392
    59  C   -0.145503
    60  C    0.100233
    61  H    0.137906
    62  H    0.152926
    63  H    0.114424
    64  H    0.130865
    65  O   -0.245568
    66  H    0.267871
    67  O   -0.236279
    68  H    0.270173
    69  O   -0.246529
    70  H    0.265935
    71  O   -0.246834
    72  H    0.267432
 Sum of Mulliken charges =  -0.00000

 Dipole moment (field-independent basis, Debye):
    X=              6.7442    Y=              1.0167    Z=              5.0487  Tot=              8.4857
 Quadrupole moment (field-independent basis, Debye-Ang):
   XX=           -225.6890   YY=           -244.3771   ZZ=           -266.9814
   XY=             11.2140   XZ=              1.2525   YZ=             -5.8925

 Normal termination of Gaussian 16 at Thu Jan 21 06:46:40 2021.
