 Gaussian 16, Revision A.03,
 Gaussian 16:  EM64L-G16RevA.03 25-Dec-2016

 ----------------------------------------------------------------------
 #P LC-wHPBE/TZVP iop(3/107=0167500000, 3/108=0167500000) scf=(conver=6
 ,fermi,ndamp=35,noincfock,novaracc,vshift=500,xqc)
 ----------------------------------------------------------------------

 ----------------
 H28 C36 S2 N2 O4
 ----------------
 Symbolic Z-matrix:
 Charge =  0 Multiplicity = 1

                         Standard orientation:
 ---------------------------------------------------------------------
 Center     Atomic      Atomic             Coordinates (Angstroms)
 Number     Number       Type             X           Y           Z
 ---------------------------------------------------------------------
      1          6           0       -1.748928    0.489907   -0.452051
      2          6           0       -0.626174    1.279763   -0.152570
      3         16           0        1.952753    5.388628   -0.812439
      4          6           0       -0.882312    2.170069    0.820725
      5          6           0        1.932708    2.897266    0.476539
      6          6           0        2.566514    3.761438   -0.418550
      7          6           0       -2.975354    0.631957    0.195801
      8          6           0       -2.049066    2.386893    1.545961
      9          1           0        0.246316    4.468801    0.586079
     10          6           0        2.384401    1.613824    0.700024
     11          6           0        3.673888    3.269502   -1.095477
     12          6           0        4.135912    1.984797   -0.893895
     13          6           0        3.494497    1.125461    0.002977
     14          1           0        1.857267    0.971131    1.395345
     15          1           0        4.176334    3.912174   -1.811785
     16          1           0        4.992977    1.632150   -1.456718
     17          6           0       -3.122467    1.590215    1.210611
     18          1           0       -1.688273   -0.276733   -1.226088
     19          1           0        2.539000    6.051116    0.206249
     20          1           0       -2.132551    3.120151    2.347153
     21          1           0       -4.068236    1.688167    1.734116
     22         16           0        0.491419    3.391365    1.378930
     23          7           0        3.940024   -0.175839    0.195205
     24          6           0        5.265040   -0.539150   -0.184549
     25          6           0        5.479402   -1.520085   -1.147894
     26          6           0        6.360048    0.068673    0.412912
     27          6           0        6.761446   -1.889048   -1.505778
     28          6           0        7.649207   -0.280692    0.044528
     29          6           0        7.852726   -1.265560   -0.913210
     30          1           0        4.624132   -2.002234   -1.612555
     31          1           0        6.198832    0.830082    1.170918
     32          1           0        6.936355   -2.656092   -2.253454
     33          1           0        8.499101    0.206598    0.518215
     34          6           0        3.067884   -1.217797    0.624973
     35          6           0        3.533169   -2.175669    1.516644
     36          6           0        1.768428   -1.324352    0.133595
     37          6           0        2.723890   -3.230889    1.904642
     38          6           0        0.952027   -2.363639    0.537000
     39          6           0        1.429133   -3.326131    1.415171
     40          1           0        4.545758   -2.102962    1.902377
     41          1           0        1.364259   -0.566763   -0.534909
     42          1           0        3.106488   -3.978127    2.597301
     43          1           0       -0.063643   -2.437107    0.162477
     44          7           0       -4.071583   -0.199288   -0.137893
     45          6           0       -5.379657    0.330758   -0.192504
     46          6           0       -6.464072   -0.381862    0.308117
     47          6           0       -5.615898    1.583782   -0.758482
     48          6           0       -7.748035    0.135409    0.237366
     49          6           0       -6.890741    2.113870   -0.808775
     50          6           0       -7.966332    1.388715   -0.314728
     51          1           0       -6.301182   -1.359246    0.752201
     52          1           0       -4.779992    2.148147   -1.160920
     53          1           0       -8.582756   -0.442294    0.630527
     54          1           0       -7.071352    3.090185   -1.247847
     55          6           0       -3.863071   -1.579858   -0.373004
     56          6           0       -4.488297   -2.228332   -1.435995
     57          6           0       -3.028002   -2.320518    0.455690
     58          6           0       -4.288516   -3.577498   -1.662294
     59          6           0       -2.802155   -3.666597    0.218956
     60          6           0       -3.435225   -4.300687   -0.840523
     61          1           0       -5.141183   -1.661753   -2.093518
     62          1           0       -2.533592   -1.828985    1.288374
     63          1           0       -4.774148   -4.081779   -2.492022
     64          1           0       -2.125658   -4.220184    0.867724
     65          8           0        0.584592   -4.343911    1.769173
     66          1           0        1.030590   -4.920168    2.399784
     67          8           0        9.095256   -1.661445   -1.308356
     68          1           0        9.763222   -1.159512   -0.827959
     69          8           0       -9.209724    1.953542   -0.400297
     70          1           0       -9.859516    1.347058   -0.028653
     71          8           0       -3.254007   -5.627948   -1.116747
     72          1           0       -2.609433   -5.991357   -0.499352
 ---------------------------------------------------------------------

 SCF Done:  E(RLC-wHPBE) =  -2593.93375546     A.U. after   21 cycles

 The electronic state is 1-A.
 Alpha  occ. eigenvalues --  -88.25708 -88.20606 -18.88773 -18.87985 -18.86581
 Alpha  occ. eigenvalues --  -18.86354 -14.12246 -14.09183 -10.05253 -10.04132
 Alpha  occ. eigenvalues --  -10.03974 -10.03947 -10.03051 -10.02672 -10.02497
 Alpha  occ. eigenvalues --  -10.02426 -10.01728 -10.00278 -10.00062  -9.99949
 Alpha  occ. eigenvalues --   -9.99777  -9.99680  -9.99646  -9.99637  -9.99352
 Alpha  occ. eigenvalues --   -9.99054  -9.98932  -9.98911  -9.98582  -9.98542
 Alpha  occ. eigenvalues --   -9.97644  -9.97516  -9.97421  -9.97347  -9.97058
 Alpha  occ. eigenvalues --   -9.96939  -9.96871  -9.96812  -9.96799  -9.96717
 Alpha  occ. eigenvalues --   -9.96566  -9.96024  -9.94861  -9.91158  -7.84793
 Alpha  occ. eigenvalues --   -7.79833  -5.86794  -5.86576  -5.86054  -5.82037
 Alpha  occ. eigenvalues --   -5.81608  -5.80847  -1.08635  -1.07619  -1.06293
 Alpha  occ. eigenvalues --   -1.06085  -0.99733  -0.96783  -0.92250  -0.89230
 Alpha  occ. eigenvalues --   -0.88038  -0.87116  -0.87048  -0.85912  -0.84067
 Alpha  occ. eigenvalues --   -0.83079  -0.79596  -0.79135  -0.78180  -0.77965
 Alpha  occ. eigenvalues --   -0.77290  -0.77202  -0.77066  -0.76486  -0.75503
 Alpha  occ. eigenvalues --   -0.74246  -0.73423  -0.71545  -0.68465  -0.67612
 Alpha  occ. eigenvalues --   -0.66830  -0.66199  -0.65981  -0.65542  -0.64394
 Alpha  occ. eigenvalues --   -0.63973  -0.63055  -0.62479  -0.61763  -0.60421
 Alpha  occ. eigenvalues --   -0.59748  -0.59155  -0.59016  -0.58096  -0.57772
 Alpha  occ. eigenvalues --   -0.57609  -0.55737  -0.54863  -0.54524  -0.53948
 Alpha  occ. eigenvalues --   -0.53445  -0.52151  -0.51572  -0.50890  -0.50272
 Alpha  occ. eigenvalues --   -0.49984  -0.49576  -0.49271  -0.48831  -0.48248
 Alpha  occ. eigenvalues --   -0.48147  -0.47805  -0.47560  -0.47346  -0.47179
 Alpha  occ. eigenvalues --   -0.46857  -0.46625  -0.46213  -0.46163  -0.45789
 Alpha  occ. eigenvalues --   -0.45579  -0.45231  -0.44989  -0.44928  -0.44594
 Alpha  occ. eigenvalues --   -0.44414  -0.43842  -0.43627  -0.43098  -0.42483
 Alpha  occ. eigenvalues --   -0.41626  -0.41412  -0.41207  -0.40935  -0.40637
 Alpha  occ. eigenvalues --   -0.40527  -0.40158  -0.40081  -0.39737  -0.39086
 Alpha  occ. eigenvalues --   -0.38699  -0.38416  -0.37742  -0.37397  -0.37064
 Alpha  occ. eigenvalues --   -0.35968  -0.33635  -0.33081  -0.32549  -0.32032
 Alpha  occ. eigenvalues --   -0.31663  -0.30875  -0.30577  -0.30250  -0.29690
 Alpha  occ. eigenvalues --   -0.28783  -0.28268  -0.27517  -0.24404  -0.21879
 Alpha  occ. eigenvalues --   -0.20815
 Alpha virt. eigenvalues --   -0.00014   0.00888   0.02381   0.02590   0.03001
 Alpha virt. eigenvalues --    0.03315   0.03590   0.04930   0.05027   0.05299
 Alpha virt. eigenvalues --    0.05847   0.06100   0.06713   0.07044   0.07155

 Mulliken charges:
               1
     1  C   -0.305293
     2  C   -0.075574
     3  S   -0.083088
     4  C   -0.272927
     5  C    0.113251
     6  C   -0.279986
     7  C    0.016518
     8  C   -0.061260
     9  H    0.138061
    10  C   -0.144072
    11  C   -0.045478
    12  C   -0.094069
    13  C    0.020129
    14  H    0.230875
    15  H    0.118863
    16  H    0.156018
    17  C   -0.175517
    18  H    0.130192
    19  H    0.114043
    20  H    0.112510
    21  H    0.138743
    22  S    0.194690
    23  N    0.036235
    24  C   -0.294141
    25  C    0.041957
    26  C   -0.022634
    27  C   -0.218023
    28  C   -0.178476
    29  C    0.138817
    30  H    0.126478
    31  H    0.124458
    32  H    0.119791
    33  H    0.107530
    34  C   -0.090886
    35  C   -0.099657
    36  C   -0.103335
    37  C   -0.145344
    38  C   -0.186742
    39  C    0.090898
    40  H    0.118109
    41  H    0.178853
    42  H    0.100279
    43  H    0.162286
    44  N    0.010957
    45  C   -0.080941
    46  C   -0.101482
    47  C   -0.083451
    48  C   -0.170553
    49  C   -0.199087
    50  C    0.114404
    51  H    0.139279
    52  H    0.140918
    53  H    0.100421
    54  H    0.110056
    55  C   -0.101360
    56  C   -0.067068
    57  C   -0.134078
    58  C   -0.202298
    59  C   -0.139044
    60  C    0.103670
    61  H    0.130206
    62  H    0.145283
    63  H    0.108256
    64  H    0.123775
    65  O   -0.244448
    66  H    0.267413
    67  O   -0.235140
    68  H    0.269912
    69  O   -0.245540
    70  H    0.265601
    71  O   -0.245740
    72  H    0.266999
 Sum of Mulliken charges =  -0.00000

 Dipole moment (field-independent basis, Debye):
    X=              6.6481    Y=              0.7884    Z=              4.9317  Tot=              8.3151
 Quadrupole moment (field-independent basis, Debye-Ang):
   XX=           -225.0713   YY=           -245.0167   ZZ=           -267.4784
   XY=             10.6403   XZ=              1.1452   YZ=             -6.0830

 Normal termination of Gaussian 16 at Thu Jan 21 22:38:24 2021.
