 Gaussian 16, Revision A.03,
 Gaussian 16:  EM64L-G16RevA.03 25-Dec-2016

 ----------------------------------------------------------------------
 #P LC-wHPBE/TZVP iop(3/107=0156200000, 3/108=0156200000) scf=(conver=6
 ,fermi,ndamp=35,noincfock,novaracc,vshift=500,xqc)
 ----------------------------------------------------------------------

 ----------------
 H28 C36 S2 N2 O4
 ----------------
 Symbolic Z-matrix:
 Charge =  0 Multiplicity = 1

                         Standard orientation:
 ---------------------------------------------------------------------
 Center     Atomic      Atomic             Coordinates (Angstroms)
 Number     Number       Type             X           Y           Z
 ---------------------------------------------------------------------
      1          6           0       -1.748928    0.489907   -0.452051
      2          6           0       -0.626174    1.279763   -0.152570
      3         16           0        1.952753    5.388628   -0.812439
      4          6           0       -0.882312    2.170069    0.820725
      5          6           0        1.932708    2.897266    0.476539
      6          6           0        2.566514    3.761438   -0.418550
      7          6           0       -2.975354    0.631957    0.195801
      8          6           0       -2.049066    2.386893    1.545961
      9          1           0        0.246316    4.468801    0.586079
     10          6           0        2.384401    1.613824    0.700024
     11          6           0        3.673888    3.269502   -1.095477
     12          6           0        4.135912    1.984797   -0.893895
     13          6           0        3.494497    1.125461    0.002977
     14          1           0        1.857267    0.971131    1.395345
     15          1           0        4.176334    3.912174   -1.811785
     16          1           0        4.992977    1.632150   -1.456718
     17          6           0       -3.122467    1.590215    1.210611
     18          1           0       -1.688273   -0.276733   -1.226088
     19          1           0        2.539000    6.051116    0.206249
     20          1           0       -2.132551    3.120151    2.347153
     21          1           0       -4.068236    1.688167    1.734116
     22         16           0        0.491419    3.391365    1.378930
     23          7           0        3.940024   -0.175839    0.195205
     24          6           0        5.265040   -0.539150   -0.184549
     25          6           0        5.479402   -1.520085   -1.147894
     26          6           0        6.360048    0.068673    0.412912
     27          6           0        6.761446   -1.889048   -1.505778
     28          6           0        7.649207   -0.280692    0.044528
     29          6           0        7.852726   -1.265560   -0.913210
     30          1           0        4.624132   -2.002234   -1.612555
     31          1           0        6.198832    0.830082    1.170918
     32          1           0        6.936355   -2.656092   -2.253454
     33          1           0        8.499101    0.206598    0.518215
     34          6           0        3.067884   -1.217797    0.624973
     35          6           0        3.533169   -2.175669    1.516644
     36          6           0        1.768428   -1.324352    0.133595
     37          6           0        2.723890   -3.230889    1.904642
     38          6           0        0.952027   -2.363639    0.537000
     39          6           0        1.429133   -3.326131    1.415171
     40          1           0        4.545758   -2.102962    1.902377
     41          1           0        1.364259   -0.566763   -0.534909
     42          1           0        3.106488   -3.978127    2.597301
     43          1           0       -0.063643   -2.437107    0.162477
     44          7           0       -4.071583   -0.199288   -0.137893
     45          6           0       -5.379657    0.330758   -0.192504
     46          6           0       -6.464072   -0.381862    0.308117
     47          6           0       -5.615898    1.583782   -0.758482
     48          6           0       -7.748035    0.135409    0.237366
     49          6           0       -6.890741    2.113870   -0.808775
     50          6           0       -7.966332    1.388715   -0.314728
     51          1           0       -6.301182   -1.359246    0.752201
     52          1           0       -4.779992    2.148147   -1.160920
     53          1           0       -8.582756   -0.442294    0.630527
     54          1           0       -7.071352    3.090185   -1.247847
     55          6           0       -3.863071   -1.579858   -0.373004
     56          6           0       -4.488297   -2.228332   -1.435995
     57          6           0       -3.028002   -2.320518    0.455690
     58          6           0       -4.288516   -3.577498   -1.662294
     59          6           0       -2.802155   -3.666597    0.218956
     60          6           0       -3.435225   -4.300687   -0.840523
     61          1           0       -5.141183   -1.661753   -2.093518
     62          1           0       -2.533592   -1.828985    1.288374
     63          1           0       -4.774148   -4.081779   -2.492022
     64          1           0       -2.125658   -4.220184    0.867724
     65          8           0        0.584592   -4.343911    1.769173
     66          1           0        1.030590   -4.920168    2.399784
     67          8           0        9.095256   -1.661445   -1.308356
     68          1           0        9.763222   -1.159512   -0.827959
     69          8           0       -9.209724    1.953542   -0.400297
     70          1           0       -9.859516    1.347058   -0.028653
     71          8           0       -3.254007   -5.627948   -1.116747
     72          1           0       -2.609433   -5.991357   -0.499352
 ---------------------------------------------------------------------

 SCF Done:  E(RLC-wHPBE) =  -2593.90687680     A.U. after   21 cycles

 The electronic state is 1-A.
 Alpha  occ. eigenvalues --  -88.25032 -88.19967 -18.88170 -18.87384 -18.85979
 Alpha  occ. eigenvalues --  -18.85756 -14.11646 -14.08598 -10.04603 -10.03450
 Alpha  occ. eigenvalues --  -10.03329 -10.03273 -10.02381 -10.02026 -10.01854
 Alpha  occ. eigenvalues --  -10.01783 -10.01085  -9.99636  -9.99424  -9.99283
 Alpha  occ. eigenvalues --   -9.99121  -9.99037  -9.99010  -9.98996  -9.98710
 Alpha  occ. eigenvalues --   -9.98399  -9.98296  -9.98248  -9.97945  -9.97905
 Alpha  occ. eigenvalues --   -9.97007  -9.96875  -9.96789  -9.96711  -9.96420
 Alpha  occ. eigenvalues --   -9.96309  -9.96234  -9.96178  -9.96165  -9.96083
 Alpha  occ. eigenvalues --   -9.95935  -9.95402  -9.94251  -9.90574  -7.84107
 Alpha  occ. eigenvalues --   -7.79186  -5.86118  -5.85900  -5.85382  -5.81398
 Alpha  occ. eigenvalues --   -5.80971  -5.80212  -1.07998  -1.06985  -1.05658
 Alpha  occ. eigenvalues --   -1.05455  -0.99070  -0.96134  -0.91544  -0.88556
 Alpha  occ. eigenvalues --   -0.87359  -0.86447  -0.86373  -0.85240  -0.83399
 Alpha  occ. eigenvalues --   -0.82402  -0.78941  -0.78479  -0.77527  -0.77311
 Alpha  occ. eigenvalues --   -0.76645  -0.76552  -0.76414  -0.75842  -0.74861
 Alpha  occ. eigenvalues --   -0.73613  -0.72789  -0.70919  -0.67857  -0.67001
 Alpha  occ. eigenvalues --   -0.66212  -0.65600  -0.65373  -0.64935  -0.63787
 Alpha  occ. eigenvalues --   -0.63373  -0.62458  -0.61888  -0.61167  -0.59842
 Alpha  occ. eigenvalues --   -0.59172  -0.58582  -0.58433  -0.57522  -0.57206
 Alpha  occ. eigenvalues --   -0.57049  -0.55186  -0.54285  -0.53957  -0.53392
 Alpha  occ. eigenvalues --   -0.52883  -0.51592  -0.51018  -0.50341  -0.49728
 Alpha  occ. eigenvalues --   -0.49436  -0.49035  -0.48710  -0.48282  -0.47705
 Alpha  occ. eigenvalues --   -0.47614  -0.47267  -0.47021  -0.46787  -0.46646
 Alpha  occ. eigenvalues --   -0.46317  -0.46092  -0.45647  -0.45625  -0.45262
 Alpha  occ. eigenvalues --   -0.45054  -0.44708  -0.44455  -0.44365  -0.44069
 Alpha  occ. eigenvalues --   -0.43880  -0.43327  -0.43099  -0.42592  -0.41982
 Alpha  occ. eigenvalues --   -0.41118  -0.40903  -0.40715  -0.40411  -0.40127
 Alpha  occ. eigenvalues --   -0.40005  -0.39663  -0.39558  -0.39242  -0.38565
 Alpha  occ. eigenvalues --   -0.38208  -0.37897  -0.37259  -0.36915  -0.36589
 Alpha  occ. eigenvalues --   -0.35484  -0.33158  -0.32648  -0.32093  -0.31581
 Alpha  occ. eigenvalues --   -0.31242  -0.30453  -0.30164  -0.29832  -0.29283
 Alpha  occ. eigenvalues --   -0.28373  -0.27874  -0.27121  -0.24059  -0.21521
 Alpha  occ. eigenvalues --   -0.20448
 Alpha virt. eigenvalues --   -0.00310   0.00575   0.02040   0.02259   0.02668
 Alpha virt. eigenvalues --    0.02976   0.03239   0.04584   0.04694   0.04939
 Alpha virt. eigenvalues --    0.05493   0.05749   0.06349   0.06690   0.06790

 Mulliken charges:
               1
     1  C   -0.306398
     2  C   -0.070109
     3  S   -0.083843
     4  C   -0.274960
     5  C    0.114579
     6  C   -0.278556
     7  C    0.016364
     8  C   -0.060106
     9  H    0.137159
    10  C   -0.144364
    11  C   -0.044869
    12  C   -0.092685
    13  C    0.019885
    14  H    0.229483
    15  H    0.117702
    16  H    0.154584
    17  C   -0.174612
    18  H    0.129414
    19  H    0.114116
    20  H    0.111366
    21  H    0.137729
    22  S    0.192563
    23  N    0.039192
    24  C   -0.293845
    25  C    0.041660
    26  C   -0.023244
    27  C   -0.216469
    28  C   -0.176773
    29  C    0.138796
    30  H    0.125474
    31  H    0.123491
    32  H    0.119001
    33  H    0.106734
    34  C   -0.090664
    35  C   -0.099163
    36  C   -0.103841
    37  C   -0.143873
    38  C   -0.185458
    39  C    0.090935
    40  H    0.117126
    41  H    0.177313
    42  H    0.099483
    43  H    0.161788
    44  N    0.014151
    45  C   -0.080792
    46  C   -0.101258
    47  C   -0.083760
    48  C   -0.169226
    49  C   -0.197742
    50  C    0.114616
    51  H    0.138157
    52  H    0.139748
    53  H    0.099604
    54  H    0.109276
    55  C   -0.100912
    56  C   -0.067385
    57  C   -0.134363
    58  C   -0.200836
    59  C   -0.137796
    60  C    0.104152
    61  H    0.129079
    62  H    0.144147
    63  H    0.107475
    64  H    0.122666
    65  O   -0.244476
    66  H    0.267383
    67  O   -0.235156
    68  H    0.269915
    69  O   -0.245576
    70  H    0.265593
    71  O   -0.245763
    72  H    0.266974
 Sum of Mulliken charges =  -0.00000

 Dipole moment (field-independent basis, Debye):
    X=              6.6238    Y=              0.7395    Z=              4.9090  Tot=              8.2777
 Quadrupole moment (field-independent basis, Debye-Ang):
   XX=           -224.9415   YY=           -245.1633   ZZ=           -267.5813
   XY=             10.5184   XZ=              1.1274   YZ=             -6.1242

 Normal termination of Gaussian 16 at Thu Jan 21 12:38:30 2021.
