 Gaussian 16, Revision A.03,
 Gaussian 16:  EM64L-G16RevA.03 25-Dec-2016

 ----------------------------------------------------------------------
 #P LC-wHPBE/TZVP iop(3/107=0163200000, 3/108=0163200000) scf=(conver=6
 ,fermi,ndamp=35,noincfock,novaracc,vshift=500,xqc)
 ----------------------------------------------------------------------

 ----------------
 H28 C36 S2 N2 O4
 ----------------
 Symbolic Z-matrix:
 Charge =  0 Multiplicity = 1

                         Standard orientation:
 ---------------------------------------------------------------------
 Center     Atomic      Atomic             Coordinates (Angstroms)
 Number     Number       Type             X           Y           Z
 ---------------------------------------------------------------------
      1          6           0       -1.748928    0.489907   -0.452051
      2          6           0       -0.626174    1.279763   -0.152570
      3         16           0        1.952753    5.388628   -0.812439
      4          6           0       -0.882312    2.170069    0.820725
      5          6           0        1.932708    2.897266    0.476539
      6          6           0        2.566514    3.761438   -0.418550
      7          6           0       -2.975354    0.631957    0.195801
      8          6           0       -2.049066    2.386893    1.545961
      9          1           0        0.246316    4.468801    0.586079
     10          6           0        2.384401    1.613824    0.700024
     11          6           0        3.673888    3.269502   -1.095477
     12          6           0        4.135912    1.984797   -0.893895
     13          6           0        3.494497    1.125461    0.002977
     14          1           0        1.857267    0.971131    1.395345
     15          1           0        4.176334    3.912174   -1.811785
     16          1           0        4.992977    1.632150   -1.456718
     17          6           0       -3.122467    1.590215    1.210611
     18          1           0       -1.688273   -0.276733   -1.226088
     19          1           0        2.539000    6.051116    0.206249
     20          1           0       -2.132551    3.120151    2.347153
     21          1           0       -4.068236    1.688167    1.734116
     22         16           0        0.491419    3.391365    1.378930
     23          7           0        3.940024   -0.175839    0.195205
     24          6           0        5.265040   -0.539150   -0.184549
     25          6           0        5.479402   -1.520085   -1.147894
     26          6           0        6.360048    0.068673    0.412912
     27          6           0        6.761446   -1.889048   -1.505778
     28          6           0        7.649207   -0.280692    0.044528
     29          6           0        7.852726   -1.265560   -0.913210
     30          1           0        4.624132   -2.002234   -1.612555
     31          1           0        6.198832    0.830082    1.170918
     32          1           0        6.936355   -2.656092   -2.253454
     33          1           0        8.499101    0.206598    0.518215
     34          6           0        3.067884   -1.217797    0.624973
     35          6           0        3.533169   -2.175669    1.516644
     36          6           0        1.768428   -1.324352    0.133595
     37          6           0        2.723890   -3.230889    1.904642
     38          6           0        0.952027   -2.363639    0.537000
     39          6           0        1.429133   -3.326131    1.415171
     40          1           0        4.545758   -2.102962    1.902377
     41          1           0        1.364259   -0.566763   -0.534909
     42          1           0        3.106488   -3.978127    2.597301
     43          1           0       -0.063643   -2.437107    0.162477
     44          7           0       -4.071583   -0.199288   -0.137893
     45          6           0       -5.379657    0.330758   -0.192504
     46          6           0       -6.464072   -0.381862    0.308117
     47          6           0       -5.615898    1.583782   -0.758482
     48          6           0       -7.748035    0.135409    0.237366
     49          6           0       -6.890741    2.113870   -0.808775
     50          6           0       -7.966332    1.388715   -0.314728
     51          1           0       -6.301182   -1.359246    0.752201
     52          1           0       -4.779992    2.148147   -1.160920
     53          1           0       -8.582756   -0.442294    0.630527
     54          1           0       -7.071352    3.090185   -1.247847
     55          6           0       -3.863071   -1.579858   -0.373004
     56          6           0       -4.488297   -2.228332   -1.435995
     57          6           0       -3.028002   -2.320518    0.455690
     58          6           0       -4.288516   -3.577498   -1.662294
     59          6           0       -2.802155   -3.666597    0.218956
     60          6           0       -3.435225   -4.300687   -0.840523
     61          1           0       -5.141183   -1.661753   -2.093518
     62          1           0       -2.533592   -1.828985    1.288374
     63          1           0       -4.774148   -4.081779   -2.492022
     64          1           0       -2.125658   -4.220184    0.867724
     65          8           0        0.584592   -4.343911    1.769173
     66          1           0        1.030590   -4.920168    2.399784
     67          8           0        9.095256   -1.661445   -1.308356
     68          1           0        9.763222   -1.159512   -0.827959
     69          8           0       -9.209724    1.953542   -0.400297
     70          1           0       -9.859516    1.347058   -0.028653
     71          8           0       -3.254007   -5.627948   -1.116747
     72          1           0       -2.609433   -5.991357   -0.499352
 ---------------------------------------------------------------------

 SCF Done:  E(RLC-wHPBE) =  -2593.92351449     A.U. after   21 cycles

 The electronic state is 1-A.
 Alpha  occ. eigenvalues --  -88.25451 -88.20363 -18.88544 -18.87756 -18.86352
 Alpha  occ. eigenvalues --  -18.86126 -14.12018 -14.08960 -10.05006 -10.03872
 Alpha  occ. eigenvalues --  -10.03728 -10.03690 -10.02796 -10.02426 -10.02252
 Alpha  occ. eigenvalues --  -10.02181 -10.01483 -10.00034  -9.99819  -9.99696
 Alpha  occ. eigenvalues --   -9.99528  -9.99435  -9.99404  -9.99393  -9.99108
 Alpha  occ. eigenvalues --   -9.98805  -9.98690  -9.98658  -9.98339  -9.98300
 Alpha  occ. eigenvalues --   -9.97402  -9.97272  -9.97181  -9.97105  -9.96815
 Alpha  occ. eigenvalues --   -9.96699  -9.96628  -9.96571  -9.96558  -9.96476
 Alpha  occ. eigenvalues --   -9.96326  -9.95787  -9.94629  -9.90935  -7.84532
 Alpha  occ. eigenvalues --   -7.79587  -5.86537  -5.86319  -5.85798  -5.81794
 Alpha  occ. eigenvalues --   -5.81366  -5.80605  -1.08393  -1.07378  -1.06052
 Alpha  occ. eigenvalues --   -1.05845  -0.99481  -0.96536  -0.91981  -0.88973
 Alpha  occ. eigenvalues --   -0.87779  -0.86861  -0.86791  -0.85656  -0.83813
 Alpha  occ. eigenvalues --   -0.82822  -0.79347  -0.78886  -0.77932  -0.77717
 Alpha  occ. eigenvalues --   -0.77045  -0.76955  -0.76818  -0.76241  -0.75259
 Alpha  occ. eigenvalues --   -0.74005  -0.73182  -0.71308  -0.68234  -0.67380
 Alpha  occ. eigenvalues --   -0.66596  -0.65972  -0.65750  -0.65312  -0.64164
 Alpha  occ. eigenvalues --   -0.63745  -0.62828  -0.62255  -0.61537  -0.60201
 Alpha  occ. eigenvalues --   -0.59530  -0.58938  -0.58796  -0.57879  -0.57558
 Alpha  occ. eigenvalues --   -0.57397  -0.55529  -0.54644  -0.54310  -0.53738
 Alpha  occ. eigenvalues --   -0.53232  -0.51939  -0.51362  -0.50682  -0.50066
 Alpha  occ. eigenvalues --   -0.49777  -0.49372  -0.49059  -0.48624  -0.48043
 Alpha  occ. eigenvalues --   -0.47946  -0.47602  -0.47356  -0.47135  -0.46978
 Alpha  occ. eigenvalues --   -0.46653  -0.46423  -0.45999  -0.45959  -0.45590
 Alpha  occ. eigenvalues --   -0.45380  -0.45034  -0.44787  -0.44715  -0.44396
 Alpha  occ. eigenvalues --   -0.44213  -0.43648  -0.43427  -0.42907  -0.42294
 Alpha  occ. eigenvalues --   -0.41434  -0.41220  -0.41021  -0.40737  -0.40444
 Alpha  occ. eigenvalues --   -0.40331  -0.39971  -0.39884  -0.39550  -0.38889
 Alpha  occ. eigenvalues --   -0.38514  -0.38220  -0.37560  -0.37215  -0.36885
 Alpha  occ. eigenvalues --   -0.35786  -0.33456  -0.32919  -0.32378  -0.31863
 Alpha  occ. eigenvalues --   -0.31505  -0.30717  -0.30422  -0.30093  -0.29538
 Alpha  occ. eigenvalues --   -0.28629  -0.28121  -0.27369  -0.24275  -0.21744
 Alpha  occ. eigenvalues --   -0.20677
 Alpha virt. eigenvalues --   -0.00124   0.00771   0.02254   0.02467   0.02877
 Alpha virt. eigenvalues --    0.03189   0.03459   0.04802   0.04903   0.05165
 Alpha virt. eigenvalues --    0.05715   0.05969   0.06577   0.06912   0.07019

 Mulliken charges:
               1
     1  C   -0.305707
     2  C   -0.073510
     3  S   -0.083378
     4  C   -0.273668
     5  C    0.113778
     6  C   -0.279422
     7  C    0.016468
     8  C   -0.060818
     9  H    0.137718
    10  C   -0.144194
    11  C   -0.045256
    12  C   -0.093523
    13  C    0.020048
    14  H    0.230330
    15  H    0.118403
    16  H    0.155455
    17  C   -0.175159
    18  H    0.129882
    19  H    0.114072
    20  H    0.112057
    21  H    0.138338
    22  S    0.193866
    23  N    0.037388
    24  C   -0.294023
    25  C    0.041870
    26  C   -0.022838
    27  C   -0.217440
    28  C   -0.177833
    29  C    0.138829
    30  H    0.126076
    31  H    0.124068
    32  H    0.119469
    33  H    0.107210
    34  C   -0.090786
    35  C   -0.099450
    36  C   -0.103508
    37  C   -0.144785
    38  C   -0.186266
    39  C    0.090927
    40  H    0.117714
    41  H    0.178247
    42  H    0.099957
    43  H    0.162084
    44  N    0.012198
    45  C   -0.080868
    46  C   -0.101379
    47  C   -0.083551
    48  C   -0.170051
    49  C   -0.198580
    50  C    0.114503
    51  H    0.138832
    52  H    0.140453
    53  H    0.100092
    54  H    0.109738
    55  C   -0.101181
    56  C   -0.067169
    57  C   -0.134164
    58  C   -0.201747
    59  C   -0.138564
    60  C    0.103865
    61  H    0.129756
    62  H    0.144831
    63  H    0.107937
    64  H    0.123338
    65  O   -0.244449
    66  H    0.267399
    67  O   -0.235137
    68  H    0.269911
    69  O   -0.245545
    70  H    0.265596
    71  O   -0.245740
    72  H    0.266987
 Sum of Mulliken charges =  -0.00000

 Dipole moment (field-independent basis, Debye):
    X=              6.6390    Y=              0.7698    Z=              4.9229  Tot=              8.3009
 Quadrupole moment (field-independent basis, Debye-Ang):
   XX=           -225.0218   YY=           -245.0720   ZZ=           -267.5177
   XY=             10.5939   XZ=              1.1382   YZ=             -6.0987

 Normal termination of Gaussian 16 at Fri Jan 22 01:05:06 2021.
