 Gaussian 16, Revision A.03,
 Gaussian 16:  EM64L-G16RevA.03 25-Dec-2016

 ----------------------------------------------------------------------
 #P LC-wHPBE/TZVP iop(3/107=0328100000, 3/108=0328100000) scf=(conver=6
 ,fermi,ndamp=35,noincfock,novaracc,vshift=500,xqc)
 ----------------------------------------------------------------------

 ----------------
 H28 C36 S2 N2 O4
 ----------------
 Symbolic Z-matrix:
 Charge =  0 Multiplicity = 1

                         Standard orientation:
 ---------------------------------------------------------------------
 Center     Atomic      Atomic             Coordinates (Angstroms)
 Number     Number       Type             X           Y           Z
 ---------------------------------------------------------------------
      1          6           0       -1.748928    0.489907   -0.452051
      2          6           0       -0.626174    1.279763   -0.152570
      3         16           0        1.952753    5.388628   -0.812439
      4          6           0       -0.882312    2.170069    0.820725
      5          6           0        1.932708    2.897266    0.476539
      6          6           0        2.566514    3.761438   -0.418550
      7          6           0       -2.975354    0.631957    0.195801
      8          6           0       -2.049066    2.386893    1.545961
      9          1           0        0.246316    4.468801    0.586079
     10          6           0        2.384401    1.613824    0.700024
     11          6           0        3.673888    3.269502   -1.095477
     12          6           0        4.135912    1.984797   -0.893895
     13          6           0        3.494497    1.125461    0.002977
     14          1           0        1.857267    0.971131    1.395345
     15          1           0        4.176334    3.912174   -1.811785
     16          1           0        4.992977    1.632150   -1.456718
     17          6           0       -3.122467    1.590215    1.210611
     18          1           0       -1.688273   -0.276733   -1.226088
     19          1           0        2.539000    6.051116    0.206249
     20          1           0       -2.132551    3.120151    2.347153
     21          1           0       -4.068236    1.688167    1.734116
     22         16           0        0.491419    3.391365    1.378930
     23          7           0        3.940024   -0.175839    0.195205
     24          6           0        5.265040   -0.539150   -0.184549
     25          6           0        5.479402   -1.520085   -1.147894
     26          6           0        6.360048    0.068673    0.412912
     27          6           0        6.761446   -1.889048   -1.505778
     28          6           0        7.649207   -0.280692    0.044528
     29          6           0        7.852726   -1.265560   -0.913210
     30          1           0        4.624132   -2.002234   -1.612555
     31          1           0        6.198832    0.830082    1.170918
     32          1           0        6.936355   -2.656092   -2.253454
     33          1           0        8.499101    0.206598    0.518215
     34          6           0        3.067884   -1.217797    0.624973
     35          6           0        3.533169   -2.175669    1.516644
     36          6           0        1.768428   -1.324352    0.133595
     37          6           0        2.723890   -3.230889    1.904642
     38          6           0        0.952027   -2.363639    0.537000
     39          6           0        1.429133   -3.326131    1.415171
     40          1           0        4.545758   -2.102962    1.902377
     41          1           0        1.364259   -0.566763   -0.534909
     42          1           0        3.106488   -3.978127    2.597301
     43          1           0       -0.063643   -2.437107    0.162477
     44          7           0       -4.071583   -0.199288   -0.137893
     45          6           0       -5.379657    0.330758   -0.192504
     46          6           0       -6.464072   -0.381862    0.308117
     47          6           0       -5.615898    1.583782   -0.758482
     48          6           0       -7.748035    0.135409    0.237366
     49          6           0       -6.890741    2.113870   -0.808775
     50          6           0       -7.966332    1.388715   -0.314728
     51          1           0       -6.301182   -1.359246    0.752201
     52          1           0       -4.779992    2.148147   -1.160920
     53          1           0       -8.582756   -0.442294    0.630527
     54          1           0       -7.071352    3.090185   -1.247847
     55          6           0       -3.863071   -1.579858   -0.373004
     56          6           0       -4.488297   -2.228332   -1.435995
     57          6           0       -3.028002   -2.320518    0.455690
     58          6           0       -4.288516   -3.577498   -1.662294
     59          6           0       -2.802155   -3.666597    0.218956
     60          6           0       -3.435225   -4.300687   -0.840523
     61          1           0       -5.141183   -1.661753   -2.093518
     62          1           0       -2.533592   -1.828985    1.288374
     63          1           0       -4.774148   -4.081779   -2.492022
     64          1           0       -2.125658   -4.220184    0.867724
     65          8           0        0.584592   -4.343911    1.769173
     66          1           0        1.030590   -4.920168    2.399784
     67          8           0        9.095256   -1.661445   -1.308356
     68          1           0        9.763222   -1.159512   -0.827959
     69          8           0       -9.209724    1.953542   -0.400297
     70          1           0       -9.859516    1.347058   -0.028653
     71          8           0       -3.254007   -5.627948   -1.116747
     72          1           0       -2.609433   -5.991357   -0.499352
 ---------------------------------------------------------------------

 SCF Done:  E(RLC-wHPBE) =  -2594.26181787     A.U. after   18 cycles

 The electronic state is 1-A.
 Alpha  occ. eigenvalues --  -88.35380 -88.29615 -18.97115 -18.96326 -18.94938
 Alpha  occ. eigenvalues --  -18.94650 -14.20750 -14.17561 -10.14545 -10.13765
 Alpha  occ. eigenvalues --  -10.13480 -10.13220 -10.12475 -10.11939 -10.11712
 Alpha  occ. eigenvalues --  -10.11571 -10.10883 -10.09463 -10.09336 -10.09190
 Alpha  occ. eigenvalues --  -10.09043 -10.08849 -10.08813 -10.08715 -10.08500
 Alpha  occ. eigenvalues --  -10.08421 -10.08287 -10.07954 -10.07704 -10.07604
 Alpha  occ. eigenvalues --  -10.06738 -10.06723 -10.06434 -10.06420 -10.06192
 Alpha  occ. eigenvalues --  -10.05994 -10.05953 -10.05889 -10.05884 -10.05772
 Alpha  occ. eigenvalues --  -10.05565 -10.04947 -10.03591  -9.99585  -7.94665
 Alpha  occ. eigenvalues --   -7.89061  -5.96384  -5.96149  -5.95579  -5.90987
 Alpha  occ. eigenvalues --   -5.90517  -5.89731  -1.17462  -1.16434  -1.15125
 Alpha  occ. eigenvalues --   -1.14857  -1.09090  -1.06013  -1.02077  -0.98592
 Alpha  occ. eigenvalues --   -0.97463  -0.96466  -0.96404  -0.95167  -0.93221
 Alpha  occ. eigenvalues --   -0.92163  -0.88378  -0.87896  -0.86930  -0.86653
 Alpha  occ. eigenvalues --   -0.85967  -0.85873  -0.85689  -0.85110  -0.84004
 Alpha  occ. eigenvalues --   -0.82765  -0.81597  -0.79676  -0.76127  -0.75267
 Alpha  occ. eigenvalues --   -0.74633  -0.73767  -0.73596  -0.73230  -0.71971
 Alpha  occ. eigenvalues --   -0.71553  -0.70428  -0.69808  -0.69264  -0.67386
 Alpha  occ. eigenvalues --   -0.66767  -0.66056  -0.66004  -0.65034  -0.64576
 Alpha  occ. eigenvalues --   -0.64276  -0.62349  -0.61744  -0.61292  -0.60398
 Alpha  occ. eigenvalues --   -0.60091  -0.58762  -0.58187  -0.57378  -0.56568
 Alpha  occ. eigenvalues --   -0.56443  -0.55892  -0.55786  -0.55245  -0.54633
 Alpha  occ. eigenvalues --   -0.54359  -0.54162  -0.53933  -0.53802  -0.53375
 Alpha  occ. eigenvalues --   -0.53115  -0.52969  -0.52746  -0.52497  -0.52002
 Alpha  occ. eigenvalues --   -0.51801  -0.51569  -0.51435  -0.51095  -0.50651
 Alpha  occ. eigenvalues --   -0.50462  -0.49801  -0.49650  -0.49034  -0.48259
 Alpha  occ. eigenvalues --   -0.47557  -0.47208  -0.46960  -0.46696  -0.46567
 Alpha  occ. eigenvalues --   -0.46239  -0.45950  -0.45765  -0.45301  -0.45005
 Alpha  occ. eigenvalues --   -0.44427  -0.44083  -0.43207  -0.42826  -0.42401
 Alpha  occ. eigenvalues --   -0.41162  -0.38813  -0.37530  -0.37259  -0.36475
 Alpha  occ. eigenvalues --   -0.35789  -0.35003  -0.34651  -0.34358  -0.33713
 Alpha  occ. eigenvalues --   -0.32847  -0.32086  -0.31361  -0.27836  -0.25780
 Alpha  occ. eigenvalues --   -0.24483
 Alpha virt. eigenvalues --    0.02401   0.03458   0.05230   0.05428   0.05776
 Alpha virt. eigenvalues --    0.06127   0.06502   0.07807   0.07967   0.08288
 Alpha virt. eigenvalues --    0.08924   0.09181   0.09805   0.10121   0.10287

 Mulliken charges:
               1
     1  C   -0.305933
     2  C   -0.122315
     3  S   -0.080200
     4  C   -0.271046
     5  C    0.093197
     6  C   -0.308502
     7  C    0.011023
     8  C   -0.074181
     9  H    0.149613
    10  C   -0.141190
    11  C   -0.041911
    12  C   -0.124646
    13  C    0.015467
    14  H    0.259515
    15  H    0.145959
    16  H    0.186299
    17  C   -0.199037
    18  H    0.150855
    19  H    0.114331
    20  H    0.139425
    21  H    0.165432
    22  S    0.221961
    23  N   -0.016636
    24  C   -0.300835
    25  C    0.024027
    26  C   -0.039888
    27  C   -0.228539
    28  C   -0.193026
    29  C    0.128146
    30  H    0.152877
    31  H    0.151392
    32  H    0.144283
    33  H    0.129992
    34  C   -0.104488
    35  C   -0.119443
    36  C   -0.116715
    37  C   -0.161514
    38  C   -0.193093
    39  C    0.083007
    40  H    0.145940
    41  H    0.212659
    42  H    0.123552
    43  H    0.179598
    44  N   -0.042249
    45  C   -0.095087
    46  C   -0.118738
    47  C   -0.095432
    48  C   -0.183365
    49  C   -0.210364
    50  C    0.102481
    51  H    0.167598
    52  H    0.169553
    53  H    0.123343
    54  H    0.134676
    55  C   -0.111776
    56  C   -0.080282
    57  C   -0.150871
    58  C   -0.215188
    59  C   -0.158825
    60  C    0.094480
    61  H    0.158905
    62  H    0.173720
    63  H    0.133000
    64  H    0.149865
    65  O   -0.254947
    66  H    0.270470
    67  O   -0.245473
    68  H    0.272305
    69  O   -0.255379
    70  H    0.268232
    71  O   -0.256028
    72  H    0.269967
 Sum of Mulliken charges =  -0.00000

 Dipole moment (field-independent basis, Debye):
    X=              6.8595    Y=              1.3864    Z=              5.2670  Tot=              8.7588
 Quadrupole moment (field-independent basis, Debye-Ang):
   XX=           -226.6459   YY=           -243.4158   ZZ=           -266.1057
   XY=             12.1725   XZ=              1.4942   YZ=             -5.6342

 Normal termination of Gaussian 16 at Thu Jan 21 11:01:45 2021.
