 Gaussian 16, Revision A.03,
 Gaussian 16:  EM64L-G16RevA.03 25-Dec-2016

 ------------------------------------------------------------
 #P LC-wHPBE/TZVP iop(3/107=0291800000, 3/108=0291800000) opt
 ------------------------------------------------------------

 -------------
 H19 C24 N1 O2
 -------------
 Symbolic Z-matrix:
 Charge =  0 Multiplicity = 1

 SCF Done:  E(RLC-wHPBE) =  -1130.53790880     A.U. after   18 cycles
 SCF Done:  E(RLC-wHPBE) =  -1130.59188810     A.U. after   16 cycles
 SCF Done:  E(RLC-wHPBE) =  -1130.61933764     A.U. after   16 cycles
 SCF Done:  E(RLC-wHPBE) =  -1130.62557224     A.U. after   17 cycles
 SCF Done:  E(RLC-wHPBE) =  -1130.62857751     A.U. after   16 cycles
 SCF Done:  E(RLC-wHPBE) =  -1130.63309287     A.U. after   18 cycles
 SCF Done:  E(RLC-wHPBE) =  -1130.63483612     A.U. after   17 cycles
 SCF Done:  E(RLC-wHPBE) =  -1130.63388852     A.U. after   17 cycles
 SCF Done:  E(RLC-wHPBE) =  -1130.63656540     A.U. after   15 cycles
 SCF Done:  E(RLC-wHPBE) =  -1130.63679509     A.U. after   14 cycles
 SCF Done:  E(RLC-wHPBE) =  -1130.63695213     A.U. after   14 cycles
 SCF Done:  E(RLC-wHPBE) =  -1130.63697340     A.U. after   13 cycles
 SCF Done:  E(RLC-wHPBE) =  -1130.63697532     A.U. after   12 cycles
 SCF Done:  E(RLC-wHPBE) =  -1130.63697584     A.U. after    9 cycles
 SCF Done:  E(RLC-wHPBE) =  -1130.63697613     A.U. after   10 cycles
 SCF Done:  E(RLC-wHPBE) =  -1130.63697614     A.U. after    8 cycles
 Optimization completed.
    -- Stationary point found.

                         Standard orientation:
 ---------------------------------------------------------------------
 Center     Atomic      Atomic             Coordinates (Angstroms)
 Number     Number       Type             X           Y           Z
 ---------------------------------------------------------------------
      1          6           0       -6.538108   -0.217341    1.255514
      2          6           0       -7.258661    0.087287    0.107878
      3          6           0       -5.151390   -0.259049    1.219222
      4          6           0       -6.580697    0.348691   -1.075777
      5          6           0       -4.458004    0.000662    0.035726
      6          6           0       -5.193998    0.304569   -1.110911
      7          1           0       -8.345644    0.121015    0.135956
      8          1           0       -4.593910   -0.476283    2.128350
      9          1           0       -7.136138    0.581164   -1.982188
     10          1           0       -4.671509    0.488761   -2.047704
     11          6           0       -2.974479   -0.044963   -0.002770
     12          6           0       -2.240322    0.918366   -0.694597
     13          6           0       -2.265576   -1.051297    0.654611
     14          6           0       -0.856277    0.875925   -0.739808
     15          6           0       -0.881570   -1.094369    0.628888
     16          6           0       -0.155643   -0.133238   -0.077397
     17          1           0       -2.762026    1.727417   -1.202285
     18          1           0       -2.809037   -1.823891    1.195264
     19          1           0       -0.306381    1.639189   -1.284917
     20          1           0       -0.352632   -1.885069    1.155020
     21          1           0       -7.059465   -0.416189    2.189743
     22          7           0        1.257026   -0.160831   -0.103806
     23          6           0        1.965402   -1.377887   -0.174570
     24          6           0        3.190004   -1.508547    0.478017
     25          6           0        1.461496   -2.456008   -0.912094
     26          6           0        3.903051   -2.696891    0.390217
     27          6           0        2.178621   -3.638306   -0.974610
     28          6           0        3.402953   -3.775056   -0.332839
     29          1           0        3.600761   -0.690157    1.062074
     30          1           0        0.514840   -2.358097   -1.435231
     31          1           0        1.782807   -4.471654   -1.551437
     32          1           0        3.963923   -4.706428   -0.398055
     33          6           0        1.972861    1.068372   -0.045814
     34          6           0        2.971482    1.350948   -0.972341
     35          6           0        1.683086    2.012203    0.939258
     36          6           0        3.676780    2.543988   -0.910119
     37          6           0        2.365608    3.214996    0.992156
     38          6           0        3.371443    3.483300    0.069272
     39          1           0        3.205268    0.621566   -1.744392
     40          1           0        0.904271    1.798314    1.667748
     41          1           0        4.460878    2.747602   -1.639197
     42          1           0        2.139895    3.954598    1.756001
     43          8           0        4.022986    4.680331    0.173244
     44          1           0        4.695287    4.738350   -0.517835
     45          8           0        5.097214   -2.751708    1.053752
     46          1           0        5.479651   -3.631493    0.941087
 ---------------------------------------------------------------------

 The electronic state is 1-A.
 Alpha  occ. eigenvalues --  -18.94402 -18.94097 -14.17828 -10.11511 -10.11310
 Alpha  occ. eigenvalues --  -10.09622 -10.09272 -10.08794 -10.06133 -10.05823
 Alpha  occ. eigenvalues --  -10.05780 -10.05733 -10.05622 -10.05564 -10.05164
 Alpha  occ. eigenvalues --  -10.05150 -10.05145 -10.05057 -10.05053 -10.04940
 Alpha  occ. eigenvalues --  -10.04939 -10.04918 -10.04851 -10.04842 -10.04707
 Alpha  occ. eigenvalues --  -10.04191 -10.04150  -1.14483  -1.14188  -1.05902
 Alpha  occ. eigenvalues --   -0.96666  -0.95689  -0.94958  -0.93427  -0.87585
 Alpha  occ. eigenvalues --   -0.85650  -0.85281  -0.84537  -0.84336  -0.83799
 Alpha  occ. eigenvalues --   -0.82808  -0.79912  -0.74021  -0.73470  -0.72098
 Alpha  occ. eigenvalues --   -0.71374  -0.70345  -0.69324  -0.68896  -0.67435
 Alpha  occ. eigenvalues --   -0.65254  -0.64412  -0.63528  -0.62019  -0.59560
 Alpha  occ. eigenvalues --   -0.58393  -0.58056  -0.57054  -0.56162  -0.55587
 Alpha  occ. eigenvalues --   -0.54148  -0.53698  -0.53329  -0.52786  -0.52515
 Alpha  occ. eigenvalues --   -0.52118  -0.51757  -0.51490  -0.51337  -0.50877
 Alpha  occ. eigenvalues --   -0.50166  -0.49043  -0.48383  -0.47887  -0.46966
 Alpha  occ. eigenvalues --   -0.46731  -0.45946  -0.45219  -0.44441  -0.44086
 Alpha  occ. eigenvalues --   -0.43465  -0.43269  -0.42651  -0.42147  -0.40010
 Alpha  occ. eigenvalues --   -0.36674  -0.35492  -0.34639  -0.34517  -0.33781
 Alpha  occ. eigenvalues --   -0.32077  -0.31426  -0.26255
 Alpha virt. eigenvalues --    0.03221   0.04351   0.05385   0.06115   0.06610
 Alpha virt. eigenvalues --    0.07459   0.07889   0.10422   0.10679   0.10970
 Alpha virt. eigenvalues --    0.12656   0.13270   0.13819   0.14240   0.14942

 Mulliken charges:
               1
     1  C   -0.097763
     2  C   -0.139783
     3  C   -0.151783
     4  C   -0.097941
     5  C    0.000414
     6  C   -0.152131
     7  H    0.118744
     8  H    0.143318
     9  H    0.116112
    10  H    0.142977
    11  C    0.022520
    12  C   -0.163678
    13  C   -0.168025
    14  C   -0.116945
    15  C   -0.134826
    16  C   -0.031625
    17  H    0.139867
    18  H    0.138525
    19  H    0.157173
    20  H    0.170400
    21  H    0.116264
    22  N   -0.039681
    23  C    0.049611
    24  C   -0.215339
    25  C   -0.200363
    26  C    0.068245
    27  C   -0.121746
    28  C   -0.175801
    29  H    0.175301
    30  H    0.174026
    31  H    0.116268
    32  H    0.114188
    33  C   -0.220519
    34  C   -0.043064
    35  C   -0.015333
    36  C   -0.192195
    37  C   -0.220852
    38  C    0.121874
    39  H    0.153013
    40  H    0.150233
    41  H    0.122196
    42  H    0.134046
    43  O   -0.245385
    44  H    0.270386
    45  O   -0.241406
    46  H    0.270484
 Sum of Mulliken charges =  -0.00000

 Dipole moment (field-independent basis, Debye):
    X=              1.1747    Y=             -1.1267    Z=             -1.5168  Tot=              2.2249
 Quadrupole moment (field-independent basis, Debye-Ang):
   XX=           -137.6504   YY=           -145.9848   ZZ=           -151.6639
   XY=             -3.9172   XZ=             -8.9576   YZ=             -6.8492

 Normal termination of Gaussian 16 at Sun Jan 17 17:39:30 2021.
