 Gaussian 16, Revision A.03,
 Gaussian 16:  EM64L-G16RevA.03 25-Dec-2016

 ----------------------------------------------------------------------
 #P LC-wHPBE/TZVP iop(3/107=0221900000, 3/108=0221900000) scf=(conver=6
 ,fermi,ndamp=35,noincfock,novaracc,vshift=500,xqc)
 ----------------------------------------------------------------------

 -------------
 H19 C24 S2 N1
 -------------
 Symbolic Z-matrix:
 Charge =  0 Multiplicity = 1

                         Standard orientation:
 ---------------------------------------------------------------------
 Center     Atomic      Atomic             Coordinates (Angstroms)
 Number     Number       Type             X           Y           Z
 ---------------------------------------------------------------------
      1          6           0       -3.352046    1.022081    0.901490
      2          6           0       -4.015603    0.124147    0.077833
      3         16           0       -3.193622   -0.833868   -1.176213
      4          6           0       -5.398593   -0.028228    0.207342
      5          6           0       -0.749106    0.373785   -1.531691
      6          6           0       -1.475477   -0.566990   -0.815552
      7          6           0       -4.041516    1.761821    1.844012
      8          6           0       -6.080951    0.720801    1.156415
      9          1           0       -7.475944   -0.835079   -0.458792
     10          6           0        0.601771    0.547170   -1.299188
     11          6           0       -0.823428   -1.336346    0.139234
     12          6           0        0.521569   -1.154920    0.389409
     13          6           0        1.255724   -0.212476   -0.331046
     14          1           0        1.160253    1.275483   -1.876291
     15          1           0       -1.383265   -2.076857    0.700814
     16          1           0        1.015474   -1.752114    1.147605
     17          6           0       -5.411167    1.613701    1.970885
     18          1           0       -2.279577    1.141824    0.800598
     19          1           0       -1.248138    0.967582   -2.290346
     20          1           0       -3.503227    2.458074    2.478369
     21          1           0       -7.154267    0.598627    1.263844
     22          1           0       -5.962434    2.189124    2.706912
     23         16           0       -6.238224   -1.192989   -0.835805
     24          7           0        2.627173   -0.037586   -0.087724
     25          6           0        3.438312   -1.140752    0.276409
     26          6           0        4.374889   -1.012928    1.295896
     27          6           0        3.317625   -2.356550   -0.387733
     28          6           0        5.179400   -2.084309    1.640010
     29          6           0        4.112866   -3.428755   -0.025756
     30          6           0        5.049979   -3.298472    0.986151
     31          1           0        4.470709   -0.064848    1.814448
     32          1           0        2.593785   -2.456724   -1.189607
     33          1           0        5.907450   -1.970366    2.436839
     34          1           0        4.006805   -4.372570   -0.551042
     35          1           0        5.677330   -4.139106    1.262850
     36          6           0        3.224517    1.239724   -0.221989
     37          6           0        4.446224    1.376745   -0.871250
     38          6           0        2.604731    2.367846    0.304633
     39          6           0        5.037460    2.622109   -0.986244
     40          6           0        3.193018    3.612223    0.169883
     41          6           0        4.413292    3.746533   -0.472133
     42          1           0        4.931907    0.498005   -1.282066
     43          1           0        1.656156    2.262505    0.820378
     44          1           0        5.992055    2.714270   -1.494403
     45          1           0        2.697309    4.484427    0.584059
     46          1           0        4.876004    4.722810   -0.569917
 ---------------------------------------------------------------------

 SCF Done:  E(RLC-wHPBE) =  -1776.27152568     A.U. after   15 cycles

 The electronic state is 1-A.
 Alpha  occ. eigenvalues --  -88.21653 -88.21571 -14.15069 -10.06488 -10.05905
 Alpha  occ. eigenvalues --  -10.05866 -10.05314 -10.04945 -10.04332 -10.02291
 Alpha  occ. eigenvalues --  -10.02264 -10.01878 -10.01846 -10.01816 -10.01813
 Alpha  occ. eigenvalues --  -10.01760 -10.01758 -10.01701 -10.01680 -10.01616
 Alpha  occ. eigenvalues --  -10.01614 -10.01593 -10.01434 -10.01395 -10.01268
 Alpha  occ. eigenvalues --  -10.01087 -10.01015  -7.80983  -7.80775  -5.83156
 Alpha  occ. eigenvalues --   -5.82976  -5.82663  -5.82456  -5.81898  -5.81686
 Alpha  occ. eigenvalues --   -1.03055  -0.93869  -0.92807  -0.92485  -0.90817
 Alpha  occ. eigenvalues --   -0.86254  -0.85103  -0.82957  -0.82400  -0.81501
 Alpha  occ. eigenvalues --   -0.81280  -0.81230  -0.78848  -0.77095  -0.74931
 Alpha  occ. eigenvalues --   -0.70419  -0.69831  -0.68019  -0.67847  -0.67399
 Alpha  occ. eigenvalues --   -0.66704  -0.64843  -0.64104  -0.61528  -0.61497
 Alpha  occ. eigenvalues --   -0.58770  -0.57184  -0.55810  -0.54779  -0.54627
 Alpha  occ. eigenvalues --   -0.53892  -0.52976  -0.52681  -0.51709  -0.51385
 Alpha  occ. eigenvalues --   -0.50718  -0.50466  -0.49987  -0.49700  -0.49529
 Alpha  occ. eigenvalues --   -0.49032  -0.48096  -0.47254  -0.46324  -0.46126
 Alpha  occ. eigenvalues --   -0.45934  -0.44533  -0.43718  -0.43126  -0.42718
 Alpha  occ. eigenvalues --   -0.42033  -0.41568  -0.41493  -0.41373  -0.39721
 Alpha  occ. eigenvalues --   -0.38251  -0.37633  -0.36391  -0.34726  -0.34705
 Alpha  occ. eigenvalues --   -0.34335  -0.33555  -0.33287  -0.30042  -0.27745
 Alpha  occ. eigenvalues --   -0.26334
 Alpha virt. eigenvalues --    0.01961   0.02462   0.03083   0.04327   0.04786
 Alpha virt. eigenvalues --    0.05136   0.05488   0.06351   0.07729   0.10023
 Alpha virt. eigenvalues --    0.11210   0.11494   0.11676   0.12697   0.13713

 Mulliken charges:
               1
     1  C    0.018873
     2  C   -0.171852
     3  S    0.033065
     4  C   -0.132996
     5  C   -0.065842
     6  C   -0.207366
     7  C   -0.149092
     8  C   -0.035886
     9  H    0.095418
    10  C   -0.117899
    11  C   -0.047319
    12  C   -0.125194
    13  C    0.002046
    14  H    0.161723
    15  H    0.126176
    16  H    0.163937
    17  C   -0.122126
    18  H    0.164842
    19  H    0.119808
    20  H    0.105001
    21  H    0.109855
    22  H    0.105803
    23  S   -0.048179
    24  N   -0.014525
    25  C   -0.095402
    26  C   -0.090789
    27  C   -0.102409
    28  C   -0.114305
    29  C   -0.114357
    30  C   -0.101038
    31  H    0.147129
    32  H    0.155779
    33  H    0.110389
    34  H    0.111369
    35  H    0.110302
    36  C   -0.102982
    37  C   -0.085116
    38  C   -0.098202
    39  C   -0.115613
    40  C   -0.119196
    41  C   -0.098803
    42  H    0.148222
    43  H    0.156299
    44  H    0.110557
    45  H    0.109775
    46  H    0.110120
 Sum of Mulliken charges =  -0.00000

 Dipole moment (field-independent basis, Debye):
    X=              2.2202    Y=              1.2896    Z=              1.5108  Tot=              2.9790
 Quadrupole moment (field-independent basis, Debye-Ang):
   XX=           -153.8506   YY=           -162.8113   ZZ=           -171.4991
   XY=             -5.7201   XZ=             -6.9964   YZ=              1.2212

 Normal termination of Gaussian 16 at Mon Jan 18 12:41:15 2021.
