 Gaussian 16, Revision A.03,
 Gaussian 16:  EM64L-G16RevA.03 25-Dec-2016

 ----------------------------------------------------------------------
 #P LC-wHPBE/TZVP iop(3/107=0156200000, 3/108=0156200000) scf=(conver=6
 ,fermi,ndamp=35,noincfock,novaracc,vshift=500,xqc)
 ----------------------------------------------------------------------

 -------------
 H19 C24 S2 N1
 -------------
 Symbolic Z-matrix:
 Charge =  0 Multiplicity = 1

                         Standard orientation:
 ---------------------------------------------------------------------
 Center     Atomic      Atomic             Coordinates (Angstroms)
 Number     Number       Type             X           Y           Z
 ---------------------------------------------------------------------
      1          6           0       -3.352046    1.022081    0.901490
      2          6           0       -4.015603    0.124147    0.077833
      3         16           0       -3.193622   -0.833868   -1.176213
      4          6           0       -5.398593   -0.028228    0.207342
      5          6           0       -0.749106    0.373785   -1.531691
      6          6           0       -1.475477   -0.566990   -0.815552
      7          6           0       -4.041516    1.761821    1.844012
      8          6           0       -6.080951    0.720801    1.156415
      9          1           0       -7.475944   -0.835079   -0.458792
     10          6           0        0.601771    0.547170   -1.299188
     11          6           0       -0.823428   -1.336346    0.139234
     12          6           0        0.521569   -1.154920    0.389409
     13          6           0        1.255724   -0.212476   -0.331046
     14          1           0        1.160253    1.275483   -1.876291
     15          1           0       -1.383265   -2.076857    0.700814
     16          1           0        1.015474   -1.752114    1.147605
     17          6           0       -5.411167    1.613701    1.970885
     18          1           0       -2.279577    1.141824    0.800598
     19          1           0       -1.248138    0.967582   -2.290346
     20          1           0       -3.503227    2.458074    2.478369
     21          1           0       -7.154267    0.598627    1.263844
     22          1           0       -5.962434    2.189124    2.706912
     23         16           0       -6.238224   -1.192989   -0.835805
     24          7           0        2.627173   -0.037586   -0.087724
     25          6           0        3.438312   -1.140752    0.276409
     26          6           0        4.374889   -1.012928    1.295896
     27          6           0        3.317625   -2.356550   -0.387733
     28          6           0        5.179400   -2.084309    1.640010
     29          6           0        4.112866   -3.428755   -0.025756
     30          6           0        5.049979   -3.298472    0.986151
     31          1           0        4.470709   -0.064848    1.814448
     32          1           0        2.593785   -2.456724   -1.189607
     33          1           0        5.907450   -1.970366    2.436839
     34          1           0        4.006805   -4.372570   -0.551042
     35          1           0        5.677330   -4.139106    1.262850
     36          6           0        3.224517    1.239724   -0.221989
     37          6           0        4.446224    1.376745   -0.871250
     38          6           0        2.604731    2.367846    0.304633
     39          6           0        5.037460    2.622109   -0.986244
     40          6           0        3.193018    3.612223    0.169883
     41          6           0        4.413292    3.746533   -0.472133
     42          1           0        4.931907    0.498005   -1.282066
     43          1           0        1.656156    2.262505    0.820378
     44          1           0        5.992055    2.714270   -1.494403
     45          1           0        2.697309    4.484427    0.584059
     46          1           0        4.876004    4.722810   -0.569917
 ---------------------------------------------------------------------

 SCF Done:  E(RLC-wHPBE) =  -1776.17353839     A.U. after   15 cycles

 The electronic state is 1-A.
 Alpha  occ. eigenvalues --  -88.18085 -88.18000 -14.11670 -10.02722 -10.02188
 Alpha  occ. eigenvalues --  -10.02153 -10.01480 -10.01100 -10.00623  -9.98575
 Alpha  occ. eigenvalues --   -9.98551  -9.98192  -9.98161  -9.98137  -9.98133
 Alpha  occ. eigenvalues --   -9.98105  -9.98102  -9.98019  -9.97959  -9.97958
 Alpha  occ. eigenvalues --   -9.97938  -9.97898  -9.97756  -9.97722  -9.97471
 Alpha  occ. eigenvalues --   -9.97266  -9.97198  -7.77350  -7.77136  -5.79590
 Alpha  occ. eigenvalues --   -5.79402  -5.79112  -5.78899  -5.78362  -5.78147
 Alpha  occ. eigenvalues --   -0.99264  -0.89872  -0.88861  -0.88593  -0.86956
 Alpha  occ. eigenvalues --   -0.82389  -0.81237  -0.79224  -0.78642  -0.77779
 Alpha  occ. eigenvalues --   -0.77567  -0.77508  -0.75172  -0.73431  -0.71335
 Alpha  occ. eigenvalues --   -0.66999  -0.66399  -0.64615  -0.64407  -0.64029
 Alpha  occ. eigenvalues --   -0.63319  -0.61497  -0.60762  -0.58324  -0.58285
 Alpha  occ. eigenvalues --   -0.55560  -0.54062  -0.52770  -0.51715  -0.51526
 Alpha  occ. eigenvalues --   -0.50907  -0.50003  -0.49712  -0.48735  -0.48441
 Alpha  occ. eigenvalues --   -0.47823  -0.47586  -0.47080  -0.46825  -0.46668
 Alpha  occ. eigenvalues --   -0.46171  -0.45230  -0.44028  -0.43379  -0.43087
 Alpha  occ. eigenvalues --   -0.42960  -0.41848  -0.41074  -0.40505  -0.40064
 Alpha  occ. eigenvalues --   -0.39474  -0.39006  -0.38908  -0.38794  -0.37180
 Alpha  occ. eigenvalues --   -0.35734  -0.35090  -0.33890  -0.32594  -0.32566
 Alpha  occ. eigenvalues --   -0.32241  -0.31463  -0.31224  -0.27887  -0.25729
 Alpha  occ. eigenvalues --   -0.24619
 Alpha virt. eigenvalues --    0.00382   0.00812   0.01429   0.02679   0.03195
 Alpha virt. eigenvalues --    0.03323   0.03735   0.04515   0.05865   0.08351
 Alpha virt. eigenvalues --    0.09384   0.09755   0.09952   0.11037   0.12051

 Mulliken charges:
               1
     1  C    0.029732
     2  C   -0.172360
     3  S    0.018195
     4  C   -0.126118
     5  C   -0.061027
     6  C   -0.188063
     7  C   -0.143260
     8  C   -0.027801
     9  H    0.096496
    10  C   -0.113759
    11  C   -0.043407
    12  C   -0.120552
    13  C    0.002901
    14  H    0.152905
    15  H    0.118631
    16  H    0.155179
    17  C   -0.115902
    18  H    0.157011
    19  H    0.112244
    20  H    0.098164
    21  H    0.102314
    22  H    0.098840
    23  S   -0.055128
    24  N    0.006399
    25  C   -0.098766
    26  C   -0.085276
    27  C   -0.098734
    28  C   -0.107774
    29  C   -0.107873
    30  C   -0.092965
    31  H    0.139287
    32  H    0.147834
    33  H    0.104485
    34  H    0.105458
    35  H    0.104241
    36  C   -0.106993
    37  C   -0.079372
    38  C   -0.094379
    39  C   -0.109127
    40  C   -0.113038
    41  C   -0.090585
    42  H    0.140272
    43  H    0.149084
    44  H    0.104616
    45  H    0.103918
    46  H    0.104055
 Sum of Mulliken charges =  -0.00000

 Dipole moment (field-independent basis, Debye):
    X=              2.3000    Y=              1.2045    Z=              1.4213  Tot=              2.9599
 Quadrupole moment (field-independent basis, Debye-Ang):
   XX=           -154.5507   YY=           -163.2448   ZZ=           -171.8630
   XY=             -5.3045   XZ=             -6.5476   YZ=              1.1897

 Normal termination of Gaussian 16 at Mon Jan 18 16:16:55 2021.
