 Gaussian 16, Revision A.03,
 Gaussian 16:  EM64L-G16RevA.03 25-Dec-2016

 ----------------------------------------------------------------------
 #P LC-wHPBE/TZVP iop(3/107=0182200000, 3/108=0182200000) scf=(conver=6
 ,fermi,ndamp=35,noincfock,novaracc,vshift=500,xqc)
 ----------------------------------------------------------------------

 -------------
 H19 C24 S2 N1
 -------------
 Symbolic Z-matrix:
 Charge =  1 Multiplicity = 2

                         Standard orientation:
 ---------------------------------------------------------------------
 Center     Atomic      Atomic             Coordinates (Angstroms)
 Number     Number       Type             X           Y           Z
 ---------------------------------------------------------------------
      1          6           0       -3.352046    1.022081    0.901490
      2          6           0       -4.015603    0.124147    0.077833
      3         16           0       -3.193622   -0.833868   -1.176213
      4          6           0       -5.398593   -0.028228    0.207342
      5          6           0       -0.749106    0.373785   -1.531691
      6          6           0       -1.475477   -0.566990   -0.815552
      7          6           0       -4.041516    1.761821    1.844012
      8          6           0       -6.080951    0.720801    1.156415
      9          1           0       -7.475944   -0.835079   -0.458792
     10          6           0        0.601771    0.547170   -1.299188
     11          6           0       -0.823428   -1.336346    0.139234
     12          6           0        0.521569   -1.154920    0.389409
     13          6           0        1.255724   -0.212476   -0.331046
     14          1           0        1.160253    1.275483   -1.876291
     15          1           0       -1.383265   -2.076857    0.700814
     16          1           0        1.015474   -1.752114    1.147605
     17          6           0       -5.411167    1.613701    1.970885
     18          1           0       -2.279577    1.141824    0.800598
     19          1           0       -1.248138    0.967582   -2.290346
     20          1           0       -3.503227    2.458074    2.478369
     21          1           0       -7.154267    0.598627    1.263844
     22          1           0       -5.962434    2.189124    2.706912
     23         16           0       -6.238224   -1.192989   -0.835805
     24          7           0        2.627173   -0.037586   -0.087724
     25          6           0        3.438312   -1.140752    0.276409
     26          6           0        4.374889   -1.012928    1.295896
     27          6           0        3.317625   -2.356550   -0.387733
     28          6           0        5.179400   -2.084309    1.640010
     29          6           0        4.112866   -3.428755   -0.025756
     30          6           0        5.049979   -3.298472    0.986151
     31          1           0        4.470709   -0.064848    1.814448
     32          1           0        2.593785   -2.456724   -1.189607
     33          1           0        5.907450   -1.970366    2.436839
     34          1           0        4.006805   -4.372570   -0.551042
     35          1           0        5.677330   -4.139106    1.262850
     36          6           0        3.224517    1.239724   -0.221989
     37          6           0        4.446224    1.376745   -0.871250
     38          6           0        2.604731    2.367846    0.304633
     39          6           0        5.037460    2.622109   -0.986244
     40          6           0        3.193018    3.612223    0.169883
     41          6           0        4.413292    3.746533   -0.472133
     42          1           0        4.931907    0.498005   -1.282066
     43          1           0        1.656156    2.262505    0.820378
     44          1           0        5.992055    2.714270   -1.494403
     45          1           0        2.697309    4.484427    0.584059
     46          1           0        4.876004    4.722810   -0.569917
 ---------------------------------------------------------------------

 SCF Done:  E(ULC-wHPBE) =  -1775.94586816     A.U. after   33 cycles
 SCF Done:  E(ULC-wHPBE) =  -1775.95985141     a.u. after    7 cycles

 The electronic state is 2-A.
 Alpha  occ. eigenvalues --  -88.30080 -88.27397 -14.33338 -10.18976 -10.18238
 Alpha  occ. eigenvalues --  -10.18198 -10.15974 -10.14189 -10.14067 -10.13704
 Alpha  occ. eigenvalues --  -10.13629 -10.13613 -10.13583 -10.13006 -10.12992
 Alpha  occ. eigenvalues --  -10.12750 -10.12702 -10.12517 -10.12480 -10.12446
 Alpha  occ. eigenvalues --  -10.12439 -10.11944 -10.11547 -10.08095 -10.07525
 Alpha  occ. eigenvalues --  -10.07120 -10.06985  -7.89237  -7.86684  -5.91503
 Alpha  occ. eigenvalues --   -5.90983  -5.90187  -5.88903  -5.88418  -5.87667
 Alpha  occ. eigenvalues --   -1.18096  -1.04810  -1.04079  -1.02383  -0.99875
 Alpha  occ. eigenvalues --   -0.96334  -0.94823  -0.92927  -0.92898  -0.92516
 Alpha  occ. eigenvalues --   -0.91808  -0.91020  -0.88963  -0.85027  -0.82843
 Alpha  occ. eigenvalues --   -0.82591  -0.80738  -0.79787  -0.78993  -0.78498
 Alpha  occ. eigenvalues --   -0.75982  -0.74322  -0.73624  -0.73413  -0.71507
 Alpha  occ. eigenvalues --   -0.68805  -0.67847  -0.67415  -0.66490  -0.64831
 Alpha  occ. eigenvalues --   -0.64501  -0.63873  -0.62512  -0.62362  -0.62078
 Alpha  occ. eigenvalues --   -0.61667  -0.61253  -0.61032  -0.60943  -0.59534
 Alpha  occ. eigenvalues --   -0.58622  -0.58320  -0.58058  -0.56423  -0.55581
 Alpha  occ. eigenvalues --   -0.55175  -0.54797  -0.54631  -0.54015  -0.53374
 Alpha  occ. eigenvalues --   -0.53168  -0.52277  -0.51667  -0.50631  -0.48697
 Alpha  occ. eigenvalues --   -0.47524  -0.47235  -0.47037  -0.45856  -0.45731
 Alpha  occ. eigenvalues --   -0.45348  -0.44690  -0.43780  -0.41271  -0.37723
 Alpha  occ. eigenvalues --   -0.35353
 Alpha virt. eigenvalues --   -0.12370  -0.11617  -0.11332  -0.09381  -0.09051
 Alpha virt. eigenvalues --   -0.07593  -0.04858  -0.04442  -0.03304  -0.02252
 Alpha virt. eigenvalues --   -0.00526  -0.00243   0.00443   0.01398   0.01833

  Beta  occ. eigenvalues --  -88.30072 -88.27396 -14.32498 -10.19021 -10.18277
  Beta  occ. eigenvalues --  -10.18237 -10.15767 -10.14023 -10.13916 -10.13574
  Beta  occ. eigenvalues --  -10.13499 -10.13485 -10.13456 -10.13076 -10.13061
  Beta  occ. eigenvalues --  -10.12614 -10.12563 -10.12563 -10.12526 -10.12497
  Beta  occ. eigenvalues --  -10.12483 -10.11917 -10.11542 -10.08090 -10.07526
  Beta  occ. eigenvalues --  -10.07121 -10.06980  -7.89229  -7.86683  -5.91502
  Beta  occ. eigenvalues --   -5.90974  -5.90166  -5.88902  -5.88416  -5.87663
  Beta  occ. eigenvalues --   -1.17015  -1.04575  -1.03880  -1.02106  -0.99814
  Beta  occ. eigenvalues --   -0.96095  -0.94621  -0.92771  -0.92748  -0.92371
  Beta  occ. eigenvalues --   -0.91682  -0.90941  -0.88616  -0.84925  -0.82777
  Beta  occ. eigenvalues --   -0.82348  -0.80563  -0.79517  -0.78831  -0.78344
  Beta  occ. eigenvalues --   -0.75828  -0.74281  -0.73459  -0.73253  -0.71459
  Beta  occ. eigenvalues --   -0.68639  -0.67467  -0.66831  -0.66368  -0.64682
  Beta  occ. eigenvalues --   -0.64406  -0.63768  -0.62437  -0.62213  -0.61945
  Beta  occ. eigenvalues --   -0.61559  -0.61141  -0.60991  -0.60873  -0.59082
  Beta  occ. eigenvalues --   -0.58380  -0.57937  -0.57649  -0.56012  -0.55539
  Beta  occ. eigenvalues --   -0.55014  -0.54609  -0.54254  -0.53859  -0.53232
  Beta  occ. eigenvalues --   -0.53065  -0.51712  -0.51488  -0.50120  -0.48620
  Beta  occ. eigenvalues --   -0.46791  -0.46674  -0.46296  -0.45505  -0.45278
  Beta  occ. eigenvalues --   -0.45043  -0.44121  -0.43739  -0.37638  -0.35232
  Beta virt. eigenvalues --   -0.25266  -0.11648  -0.11278  -0.10802  -0.08891
  Beta virt. eigenvalues --   -0.08656  -0.06549  -0.04812  -0.04404  -0.03177
  Beta virt. eigenvalues --   -0.02163  -0.00444  -0.00159   0.00506   0.01453

 Mulliken charges and spin densities:
               1          2
     1  C    0.033118   0.005108
     2  C   -0.158291   0.009112
     3  S    0.081791   0.013979
     4  C   -0.127532   0.003707
     5  C   -0.041226  -0.071697
     6  C   -0.215351   0.159777
     7  C   -0.143604  -0.001175
     8  C   -0.025721  -0.002026
     9  H    0.116200   0.000106
    10  C   -0.086044   0.122318
    11  C   -0.021822  -0.068567
    12  C   -0.095396   0.110105
    13  C   -0.014271  -0.015263
    14  H    0.188934  -0.005112
    15  H    0.160622   0.003022
    16  H    0.190735  -0.004414
    17  C   -0.111387   0.004528
    18  H    0.130466  -0.000458
    19  H    0.155996   0.003141
    20  H    0.112229   0.000335
    21  H    0.125810   0.000088
    22  H    0.124052  -0.000219
    23  S   -0.032747   0.003541
    24  N    0.098184   0.376606
    25  C   -0.115777  -0.012571
    26  C   -0.064970   0.089359
    27  C   -0.080538   0.090220
    28  C   -0.103890  -0.051149
    29  C   -0.103795  -0.052241
    30  C   -0.060888   0.121900
    31  H    0.173216  -0.003848
    32  H    0.182368  -0.003849
    33  H    0.149692   0.002695
    34  H    0.150111   0.002736
    35  H    0.153335  -0.006077
    36  C   -0.124589  -0.013236
    37  C   -0.059091   0.089057
    38  C   -0.076789   0.090380
    39  C   -0.105043  -0.051008
    40  C   -0.108902  -0.052536
    41  C   -0.058641   0.121707
    42  H    0.174151  -0.003869
    43  H    0.184085  -0.003561
    44  H    0.149931   0.002723
    45  H    0.148174   0.002694
    46  H    0.153106  -0.006070
 Sum of Mulliken charges =   1.00000   1.00000

 Dipole moment (field-independent basis, Debye):
    X=             10.4956    Y=              1.1885    Z=              1.3226  Tot=             10.6452
 Quadrupole moment (field-independent basis, Debye-Ang):
   XX=            -70.0428   YY=           -130.2017   ZZ=           -160.3861
   XY=             -5.5881   XZ=             -5.1100   YZ=             -1.5752

 Normal termination of Gaussian 16 at Tue Jan 19 12:47:02 2021.
