 Gaussian 16, Revision A.03,
 Gaussian 16:  EM64L-G16RevA.03 25-Dec-2016

 ----------------------------------------------------------------------
 #P LC-wHPBE/TZVP iop(3/107=0155800000, 3/108=0155800000) scf=(conver=6
 ,fermi,ndamp=35,noincfock,novaracc,vshift=500,xqc)
 ----------------------------------------------------------------------

 -------------
 H19 C24 S2 N1
 -------------
 Symbolic Z-matrix:
 Charge =  0 Multiplicity = 1

                         Standard orientation:
 ---------------------------------------------------------------------
 Center     Atomic      Atomic             Coordinates (Angstroms)
 Number     Number       Type             X           Y           Z
 ---------------------------------------------------------------------
      1          6           0       -3.352046    1.022081    0.901490
      2          6           0       -4.015603    0.124147    0.077833
      3         16           0       -3.193622   -0.833868   -1.176213
      4          6           0       -5.398593   -0.028228    0.207342
      5          6           0       -0.749106    0.373785   -1.531691
      6          6           0       -1.475477   -0.566990   -0.815552
      7          6           0       -4.041516    1.761821    1.844012
      8          6           0       -6.080951    0.720801    1.156415
      9          1           0       -7.475944   -0.835079   -0.458792
     10          6           0        0.601771    0.547170   -1.299188
     11          6           0       -0.823428   -1.336346    0.139234
     12          6           0        0.521569   -1.154920    0.389409
     13          6           0        1.255724   -0.212476   -0.331046
     14          1           0        1.160253    1.275483   -1.876291
     15          1           0       -1.383265   -2.076857    0.700814
     16          1           0        1.015474   -1.752114    1.147605
     17          6           0       -5.411167    1.613701    1.970885
     18          1           0       -2.279577    1.141824    0.800598
     19          1           0       -1.248138    0.967582   -2.290346
     20          1           0       -3.503227    2.458074    2.478369
     21          1           0       -7.154267    0.598627    1.263844
     22          1           0       -5.962434    2.189124    2.706912
     23         16           0       -6.238224   -1.192989   -0.835805
     24          7           0        2.627173   -0.037586   -0.087724
     25          6           0        3.438312   -1.140752    0.276409
     26          6           0        4.374889   -1.012928    1.295896
     27          6           0        3.317625   -2.356550   -0.387733
     28          6           0        5.179400   -2.084309    1.640010
     29          6           0        4.112866   -3.428755   -0.025756
     30          6           0        5.049979   -3.298472    0.986151
     31          1           0        4.470709   -0.064848    1.814448
     32          1           0        2.593785   -2.456724   -1.189607
     33          1           0        5.907450   -1.970366    2.436839
     34          1           0        4.006805   -4.372570   -0.551042
     35          1           0        5.677330   -4.139106    1.262850
     36          6           0        3.224517    1.239724   -0.221989
     37          6           0        4.446224    1.376745   -0.871250
     38          6           0        2.604731    2.367846    0.304633
     39          6           0        5.037460    2.622109   -0.986244
     40          6           0        3.193018    3.612223    0.169883
     41          6           0        4.413292    3.746533   -0.472133
     42          1           0        4.931907    0.498005   -1.282066
     43          1           0        1.656156    2.262505    0.820378
     44          1           0        5.992055    2.714270   -1.494403
     45          1           0        2.697309    4.484427    0.584059
     46          1           0        4.876004    4.722810   -0.569917
 ---------------------------------------------------------------------

 SCF Done:  E(RLC-wHPBE) =  -1776.17292869     A.U. after   15 cycles

 The electronic state is 1-A.
 Alpha  occ. eigenvalues --  -88.18063 -88.17978 -14.11650 -10.02699 -10.02165
 Alpha  occ. eigenvalues --  -10.02131 -10.01456 -10.01077 -10.00600  -9.98553
 Alpha  occ. eigenvalues --   -9.98528  -9.98169  -9.98139  -9.98114  -9.98111
 Alpha  occ. eigenvalues --   -9.98082  -9.98079  -9.97996  -9.97937  -9.97935
 Alpha  occ. eigenvalues --   -9.97916  -9.97875  -9.97734  -9.97700  -9.97448
 Alpha  occ. eigenvalues --   -9.97242  -9.97175  -7.77328  -7.77113  -5.79568
 Alpha  occ. eigenvalues --   -5.79380  -5.79090  -5.78878  -5.78340  -5.78125
 Alpha  occ. eigenvalues --   -0.99241  -0.89848  -0.88837  -0.88569  -0.86932
 Alpha  occ. eigenvalues --   -0.82366  -0.81213  -0.79201  -0.78619  -0.77756
 Alpha  occ. eigenvalues --   -0.77545  -0.77485  -0.75149  -0.73409  -0.71312
 Alpha  occ. eigenvalues --   -0.66978  -0.66378  -0.64594  -0.64385  -0.64007
 Alpha  occ. eigenvalues --   -0.63298  -0.61476  -0.60740  -0.58303  -0.58264
 Alpha  occ. eigenvalues --   -0.55539  -0.54041  -0.52750  -0.51696  -0.51506
 Alpha  occ. eigenvalues --   -0.50888  -0.49984  -0.49693  -0.48716  -0.48422
 Alpha  occ. eigenvalues --   -0.47804  -0.47567  -0.47061  -0.46806  -0.46649
 Alpha  occ. eigenvalues --   -0.46152  -0.45211  -0.44007  -0.43359  -0.43067
 Alpha  occ. eigenvalues --   -0.42941  -0.41830  -0.41057  -0.40488  -0.40046
 Alpha  occ. eigenvalues --   -0.39457  -0.38989  -0.38891  -0.38776  -0.37163
 Alpha  occ. eigenvalues --   -0.35717  -0.35072  -0.33873  -0.32579  -0.32550
 Alpha  occ. eigenvalues --   -0.32227  -0.31448  -0.31209  -0.27871  -0.25714
 Alpha  occ. eigenvalues --   -0.24607
 Alpha virt. eigenvalues --    0.00370   0.00800   0.01416   0.02666   0.03183
 Alpha virt. eigenvalues --    0.03310   0.03722   0.04502   0.05851   0.08338
 Alpha virt. eigenvalues --    0.09370   0.09742   0.09939   0.11024   0.12039

 Mulliken charges:
               1
     1  C    0.029787
     2  C   -0.172370
     3  S    0.018111
     4  C   -0.126093
     5  C   -0.060996
     6  C   -0.187976
     7  C   -0.143233
     8  C   -0.027758
     9  H    0.096502
    10  C   -0.113744
    11  C   -0.043380
    12  C   -0.120534
    13  C    0.002894
    14  H    0.152867
    15  H    0.118602
    16  H    0.155141
    17  C   -0.115880
    18  H    0.156972
    19  H    0.112215
    20  H    0.098139
    21  H    0.102282
    22  H    0.098813
    23  S   -0.055168
    24  N    0.006509
    25  C   -0.098796
    26  C   -0.085260
    27  C   -0.098729
    28  C   -0.107739
    29  C   -0.107838
    30  C   -0.092936
    31  H    0.139255
    32  H    0.147801
    33  H    0.104466
    34  H    0.105439
    35  H    0.104220
    36  C   -0.107027
    37  C   -0.079355
    38  C   -0.094373
    39  C   -0.109092
    40  C   -0.113004
    41  C   -0.090556
    42  H    0.140240
    43  H    0.149055
    44  H    0.104596
    45  H    0.103898
    46  H    0.104034
 Sum of Mulliken charges =  -0.00000

 Dipole moment (field-independent basis, Debye):
    X=              2.3005    Y=              1.2040    Z=              1.4207  Tot=              2.9598
 Quadrupole moment (field-independent basis, Debye-Ang):
   XX=           -154.5546   YY=           -163.2473   ZZ=           -171.8652
   XY=             -5.3020   XZ=             -6.5449   YZ=              1.1895

 Normal termination of Gaussian 16 at Mon Jan 18 18:29:31 2021.
