 Gaussian 16, Revision A.03,
 Gaussian 16:  EM64L-G16RevA.03 25-Dec-2016

 ----------------------------------------------------------------------
 #P LC-wHPBE/TZVP iop(3/107=0181400000, 3/108=0181400000) scf=(conver=6
 ,fermi,ndamp=35,noincfock,novaracc,vshift=500,xqc)
 ----------------------------------------------------------------------

 -------------
 H19 C24 S2 N1
 -------------
 Symbolic Z-matrix:
 Charge =  0 Multiplicity = 1

                         Standard orientation:
 ---------------------------------------------------------------------
 Center     Atomic      Atomic             Coordinates (Angstroms)
 Number     Number       Type             X           Y           Z
 ---------------------------------------------------------------------
      1          6           0       -3.352046    1.022081    0.901490
      2          6           0       -4.015603    0.124147    0.077833
      3         16           0       -3.193622   -0.833868   -1.176213
      4          6           0       -5.398593   -0.028228    0.207342
      5          6           0       -0.749106    0.373785   -1.531691
      6          6           0       -1.475477   -0.566990   -0.815552
      7          6           0       -4.041516    1.761821    1.844012
      8          6           0       -6.080951    0.720801    1.156415
      9          1           0       -7.475944   -0.835079   -0.458792
     10          6           0        0.601771    0.547170   -1.299188
     11          6           0       -0.823428   -1.336346    0.139234
     12          6           0        0.521569   -1.154920    0.389409
     13          6           0        1.255724   -0.212476   -0.331046
     14          1           0        1.160253    1.275483   -1.876291
     15          1           0       -1.383265   -2.076857    0.700814
     16          1           0        1.015474   -1.752114    1.147605
     17          6           0       -5.411167    1.613701    1.970885
     18          1           0       -2.279577    1.141824    0.800598
     19          1           0       -1.248138    0.967582   -2.290346
     20          1           0       -3.503227    2.458074    2.478369
     21          1           0       -7.154267    0.598627    1.263844
     22          1           0       -5.962434    2.189124    2.706912
     23         16           0       -6.238224   -1.192989   -0.835805
     24          7           0        2.627173   -0.037586   -0.087724
     25          6           0        3.438312   -1.140752    0.276409
     26          6           0        4.374889   -1.012928    1.295896
     27          6           0        3.317625   -2.356550   -0.387733
     28          6           0        5.179400   -2.084309    1.640010
     29          6           0        4.112866   -3.428755   -0.025756
     30          6           0        5.049979   -3.298472    0.986151
     31          1           0        4.470709   -0.064848    1.814448
     32          1           0        2.593785   -2.456724   -1.189607
     33          1           0        5.907450   -1.970366    2.436839
     34          1           0        4.006805   -4.372570   -0.551042
     35          1           0        5.677330   -4.139106    1.262850
     36          6           0        3.224517    1.239724   -0.221989
     37          6           0        4.446224    1.376745   -0.871250
     38          6           0        2.604731    2.367846    0.304633
     39          6           0        5.037460    2.622109   -0.986244
     40          6           0        3.193018    3.612223    0.169883
     41          6           0        4.413292    3.746533   -0.472133
     42          1           0        4.931907    0.498005   -1.282066
     43          1           0        1.656156    2.262505    0.820378
     44          1           0        5.992055    2.714270   -1.494403
     45          1           0        2.697309    4.484427    0.584059
     46          1           0        4.876004    4.722810   -0.569917
 ---------------------------------------------------------------------

 SCF Done:  E(RLC-wHPBE) =  -1776.21194076     A.U. after   15 cycles

 The electronic state is 1-A.
 Alpha  occ. eigenvalues --  -88.19454 -88.19369 -14.12973 -10.04164 -10.03612
 Alpha  occ. eigenvalues --  -10.03575 -10.02951 -10.02576 -10.02046  -9.99999
 Alpha  occ. eigenvalues --   -9.99974  -9.99605  -9.99574  -9.99548  -9.99544
 Alpha  occ. eigenvalues --   -9.99507  -9.99504  -9.99423  -9.99360  -9.99360
 Alpha  occ. eigenvalues --   -9.99358  -9.99339  -9.99167  -9.99132  -9.98928
 Alpha  occ. eigenvalues --   -9.98734  -9.98664  -7.78740  -7.78527  -5.80959
 Alpha  occ. eigenvalues --   -5.80773  -5.80476  -5.80265  -5.79720  -5.79505
 Alpha  occ. eigenvalues --   -1.00713  -0.91401  -0.90374  -0.90084  -0.88438
 Alpha  occ. eigenvalues --   -0.83878  -0.82729  -0.80667  -0.80096  -0.79219
 Alpha  occ. eigenvalues --   -0.79004  -0.78949  -0.76600  -0.74858  -0.72739
 Alpha  occ. eigenvalues --   -0.68341  -0.67747  -0.65950  -0.65760  -0.65354
 Alpha  occ. eigenvalues --   -0.64653  -0.62818  -0.62083  -0.59597  -0.59561
 Alpha  occ. eigenvalues --   -0.56842  -0.55308  -0.53984  -0.52935  -0.52766
 Alpha  occ. eigenvalues --   -0.52106  -0.51193  -0.50900  -0.49928  -0.49621
 Alpha  occ. eigenvalues --   -0.48983  -0.48743  -0.48245  -0.47977  -0.47814
 Alpha  occ. eigenvalues --   -0.47322  -0.46384  -0.45324  -0.44562  -0.44314
 Alpha  occ. eigenvalues --   -0.44163  -0.42937  -0.42144  -0.41565  -0.41138
 Alpha  occ. eigenvalues --   -0.40515  -0.40044  -0.39953  -0.39844  -0.38218
 Alpha  occ. eigenvalues --   -0.36763  -0.36144  -0.34924  -0.33493  -0.33467
 Alpha  occ. eigenvalues --   -0.33121  -0.32345  -0.32093  -0.28784  -0.26570
 Alpha  occ. eigenvalues --   -0.25339
 Alpha virt. eigenvalues --    0.01067   0.01534   0.02147   0.03400   0.03893
 Alpha virt. eigenvalues --    0.04109   0.04491   0.05299   0.06669   0.09078
 Alpha virt. eigenvalues --    0.10167   0.10507   0.10695   0.11756   0.12776

 Mulliken charges:
               1
     1  C    0.025962
     2  C   -0.171917
     3  S    0.023765
     4  C   -0.128142
     5  C   -0.063003
     6  C   -0.194351
     7  C   -0.145189
     8  C   -0.030755
     9  H    0.096065
    10  C   -0.114947
    11  C   -0.045068
    12  C   -0.121911
    13  C    0.003072
    14  H    0.155712
    15  H    0.120898
    16  H    0.157970
    17  C   -0.117686
    18  H    0.159682
    19  H    0.114522
    20  H    0.100159
    21  H    0.104678
    22  H    0.100914
    23  S   -0.052494
    24  N   -0.001093
    25  C   -0.097031
    26  C   -0.086732
    27  C   -0.099459
    28  C   -0.110141
    29  C   -0.110235
    30  C   -0.095296
    31  H    0.141701
    32  H    0.150305
    33  H    0.106139
    34  H    0.107121
    35  H    0.105966
    36  C   -0.105008
    37  C   -0.080922
    38  C   -0.095164
    39  C   -0.111478
    40  C   -0.115275
    41  C   -0.092967
    42  H    0.142732
    43  H    0.151286
    44  H    0.106284
    45  H    0.105551
    46  H    0.105780
 Sum of Mulliken charges =  -0.00000

 Dipole moment (field-independent basis, Debye):
    X=              2.2675    Y=              1.2375    Z=              1.4559  Tot=              2.9653
 Quadrupole moment (field-independent basis, Debye-Ang):
   XX=           -154.2915   YY=           -163.0846   ZZ=           -171.7221
   XY=             -5.4665   XZ=             -6.7224   YZ=              1.2022

 Normal termination of Gaussian 16 at Tue Jan 19 12:57:16 2021.
