 Gaussian 16, Revision A.03,
 Gaussian 16:  EM64L-G16RevA.03 25-Dec-2016

 ----------------------------------------------------------------------
 #P LC-wHPBE/TZVP iop(3/107=0179500000, 3/108=0179500000) scf=(conver=6
 ,fermi,ndamp=35,noincfock,novaracc,vshift=500,xqc)
 ----------------------------------------------------------------------

 -------------
 H19 C24 S2 N1
 -------------
 Symbolic Z-matrix:
 Charge =  1 Multiplicity = 2

                         Standard orientation:
 ---------------------------------------------------------------------
 Center     Atomic      Atomic             Coordinates (Angstroms)
 Number     Number       Type             X           Y           Z
 ---------------------------------------------------------------------
      1          6           0       -3.352046    1.022081    0.901490
      2          6           0       -4.015603    0.124147    0.077833
      3         16           0       -3.193622   -0.833868   -1.176213
      4          6           0       -5.398593   -0.028228    0.207342
      5          6           0       -0.749106    0.373785   -1.531691
      6          6           0       -1.475477   -0.566990   -0.815552
      7          6           0       -4.041516    1.761821    1.844012
      8          6           0       -6.080951    0.720801    1.156415
      9          1           0       -7.475944   -0.835079   -0.458792
     10          6           0        0.601771    0.547170   -1.299188
     11          6           0       -0.823428   -1.336346    0.139234
     12          6           0        0.521569   -1.154920    0.389409
     13          6           0        1.255724   -0.212476   -0.331046
     14          1           0        1.160253    1.275483   -1.876291
     15          1           0       -1.383265   -2.076857    0.700814
     16          1           0        1.015474   -1.752114    1.147605
     17          6           0       -5.411167    1.613701    1.970885
     18          1           0       -2.279577    1.141824    0.800598
     19          1           0       -1.248138    0.967582   -2.290346
     20          1           0       -3.503227    2.458074    2.478369
     21          1           0       -7.154267    0.598627    1.263844
     22          1           0       -5.962434    2.189124    2.706912
     23         16           0       -6.238224   -1.192989   -0.835805
     24          7           0        2.627173   -0.037586   -0.087724
     25          6           0        3.438312   -1.140752    0.276409
     26          6           0        4.374889   -1.012928    1.295896
     27          6           0        3.317625   -2.356550   -0.387733
     28          6           0        5.179400   -2.084309    1.640010
     29          6           0        4.112866   -3.428755   -0.025756
     30          6           0        5.049979   -3.298472    0.986151
     31          1           0        4.470709   -0.064848    1.814448
     32          1           0        2.593785   -2.456724   -1.189607
     33          1           0        5.907450   -1.970366    2.436839
     34          1           0        4.006805   -4.372570   -0.551042
     35          1           0        5.677330   -4.139106    1.262850
     36          6           0        3.224517    1.239724   -0.221989
     37          6           0        4.446224    1.376745   -0.871250
     38          6           0        2.604731    2.367846    0.304633
     39          6           0        5.037460    2.622109   -0.986244
     40          6           0        3.193018    3.612223    0.169883
     41          6           0        4.413292    3.746533   -0.472133
     42          1           0        4.931907    0.498005   -1.282066
     43          1           0        1.656156    2.262505    0.820378
     44          1           0        5.992055    2.714270   -1.494403
     45          1           0        2.697309    4.484427    0.584059
     46          1           0        4.876004    4.722810   -0.569917
 ---------------------------------------------------------------------

 SCF Done:  E(ULC-wHPBE) =  -1775.94213246     A.U. after   33 cycles
 SCF Done:  E(ULC-wHPBE) =  -1775.95595050     a.u. after   57 cycles

 The electronic state is 2-A.
 Alpha  occ. eigenvalues --  -88.29959 -88.27273 -14.33142 -10.18812 -10.18067
 Alpha  occ. eigenvalues --  -10.18027 -10.15819 -10.14026 -10.13901 -10.13534
 Alpha  occ. eigenvalues --  -10.13458 -10.13442 -10.13412 -10.12853 -10.12840
 Alpha  occ. eigenvalues --  -10.12583 -10.12534 -10.12353 -10.12316 -10.12281
 Alpha  occ. eigenvalues --  -10.12275 -10.11808 -10.11412 -10.07957 -10.07388
 Alpha  occ. eigenvalues --  -10.06982 -10.06849  -7.89113  -7.86558  -5.91380
 Alpha  occ. eigenvalues --   -5.90861  -5.90068  -5.88778  -5.88294  -5.87544
 Alpha  occ. eigenvalues --   -1.17905  -1.04640  -1.03900  -1.02209  -0.99728
 Alpha  occ. eigenvalues --   -0.96174  -0.94652  -0.92763  -0.92733  -0.92346
 Alpha  occ. eigenvalues --   -0.91651  -0.90876  -0.88810  -0.84883  -0.82706
 Alpha  occ. eigenvalues --   -0.82432  -0.80591  -0.79631  -0.78839  -0.78345
 Alpha  occ. eigenvalues --   -0.75833  -0.74192  -0.73477  -0.73261  -0.71383
 Alpha  occ. eigenvalues --   -0.68659  -0.67700  -0.67267  -0.66365  -0.64694
 Alpha  occ. eigenvalues --   -0.64364  -0.63745  -0.62376  -0.62224  -0.61951
 Alpha  occ. eigenvalues --   -0.61534  -0.61121  -0.60918  -0.60807  -0.59399
 Alpha  occ. eigenvalues --   -0.58495  -0.58198  -0.57914  -0.56304  -0.55480
 Alpha  occ. eigenvalues --   -0.55049  -0.54676  -0.54505  -0.53899  -0.53256
 Alpha  occ. eigenvalues --   -0.53045  -0.52157  -0.51570  -0.50532  -0.48603
 Alpha  occ. eigenvalues --   -0.47429  -0.47128  -0.46934  -0.45755  -0.45633
 Alpha  occ. eigenvalues --   -0.45253  -0.44603  -0.43693  -0.41171  -0.37653
 Alpha  occ. eigenvalues --   -0.35288
 Alpha virt. eigenvalues --   -0.12432  -0.11677  -0.11391  -0.09449  -0.09115
 Alpha virt. eigenvalues --   -0.07658  -0.04947  -0.04531  -0.03397  -0.02316
 Alpha virt. eigenvalues --   -0.00592  -0.00318   0.00375   0.01331   0.01752

  Beta  occ. eigenvalues --  -88.29950 -88.27272 -14.32307 -10.18855 -10.18105
  Beta  occ. eigenvalues --  -10.18064 -10.15612 -10.13861 -10.13751 -10.13405
  Beta  occ. eigenvalues --  -10.13329 -10.13315 -10.13285 -10.12922 -10.12907
  Beta  occ. eigenvalues --  -10.12448 -10.12398 -10.12396 -10.12361 -10.12331
  Beta  occ. eigenvalues --  -10.12317 -10.11781 -10.11407 -10.07952 -10.07389
  Beta  occ. eigenvalues --  -10.06983 -10.06844  -7.89104  -7.86556  -5.91379
  Beta  occ. eigenvalues --   -5.90851  -5.90045  -5.88777  -5.88292  -5.87540
  Beta  occ. eigenvalues --   -1.16830  -1.04405  -1.03702  -1.01934  -0.99667
  Beta  occ. eigenvalues --   -0.95935  -0.94450  -0.92607  -0.92584  -0.92201
  Beta  occ. eigenvalues --   -0.91528  -0.90795  -0.88463  -0.84782  -0.82640
  Beta  occ. eigenvalues --   -0.82190  -0.80416  -0.79363  -0.78677  -0.78192
  Beta  occ. eigenvalues --   -0.75679  -0.74151  -0.73311  -0.73102  -0.71334
  Beta  occ. eigenvalues --   -0.68494  -0.67325  -0.66688  -0.66243  -0.64545
  Beta  occ. eigenvalues --   -0.64270  -0.63641  -0.62302  -0.62077  -0.61819
  Beta  occ. eigenvalues --   -0.61428  -0.61010  -0.60876  -0.60738  -0.58953
  Beta  occ. eigenvalues --   -0.58265  -0.57802  -0.57509  -0.55903  -0.55439
  Beta  occ. eigenvalues --   -0.54890  -0.54487  -0.54135  -0.53742  -0.53114
  Beta  occ. eigenvalues --   -0.52942  -0.51612  -0.51385  -0.50024  -0.48527
  Beta  occ. eigenvalues --   -0.46704  -0.46574  -0.46198  -0.45408  -0.45184
  Beta  occ. eigenvalues --   -0.44948  -0.44039  -0.43651  -0.37562  -0.35156
  Beta virt. eigenvalues --   -0.25302  -0.11713  -0.11341  -0.10862  -0.08964
  Beta virt. eigenvalues --   -0.08724  -0.06629  -0.04898  -0.04491  -0.03270
  Beta virt. eigenvalues --   -0.02227  -0.00509  -0.00234   0.00438   0.01386

 Mulliken charges and spin densities:
               1          2
     1  C    0.033603   0.005247
     2  C   -0.158434   0.009202
     3  S    0.081717   0.015230
     4  C   -0.127265   0.004001
     5  C   -0.040982  -0.070753
     6  C   -0.214698   0.158793
     7  C   -0.143314  -0.001222
     8  C   -0.025344  -0.002199
     9  H    0.116321   0.000100
    10  C   -0.086050   0.121465
    11  C   -0.021588  -0.067525
    12  C   -0.095436   0.108876
    13  C   -0.013965  -0.014241
    14  H    0.188586  -0.005084
    15  H    0.160308   0.002978
    16  H    0.190379  -0.004369
    17  C   -0.111074   0.004914
    18  H    0.130385  -0.000462
    19  H    0.155697   0.003085
    20  H    0.112103   0.000340
    21  H    0.125611   0.000093
    22  H    0.123905  -0.000239
    23  S   -0.032695   0.003869
    24  N    0.098097   0.374337
    25  C   -0.115690  -0.011817
    26  C   -0.064897   0.088632
    27  C   -0.080519   0.089485
    28  C   -0.103567  -0.050445
    29  C   -0.103474  -0.051524
    30  C   -0.060746   0.121201
    31  H    0.172868  -0.003819
    32  H    0.181975  -0.003821
    33  H    0.149436   0.002667
    34  H    0.149847   0.002708
    35  H    0.153070  -0.006048
    36  C   -0.124531  -0.012467
    37  C   -0.059003   0.088320
    38  C   -0.076770   0.089658
    39  C   -0.104718  -0.050297
    40  C   -0.108591  -0.051832
    41  C   -0.058494   0.121017
    42  H    0.173806  -0.003840
    43  H    0.183704  -0.003533
    44  H    0.149678   0.002694
    45  H    0.147905   0.002666
    46  H    0.152843  -0.006042
 Sum of Mulliken charges =   1.00000   1.00000

 Dipole moment (field-independent basis, Debye):
    X=             10.4408    Y=              1.1851    Z=              1.3197  Tot=             10.5904
 Quadrupole moment (field-independent basis, Debye-Ang):
   XX=            -69.9736   YY=           -130.2391   ZZ=           -160.3891
   XY=             -5.5672   XZ=             -5.1018   YZ=             -1.5583

 Normal termination of Gaussian 16 at Tue Jan 19 08:45:11 2021.
