 Gaussian 16, Revision A.03,
 Gaussian 16:  EM64L-G16RevA.03 25-Dec-2016

 ----------------------------------------------------------------------
 #P LC-wHPBE/TZVP iop(3/107=0156200000, 3/108=0156200000) scf=(conver=6
 ,fermi,ndamp=35,noincfock,novaracc,vshift=500,xqc)
 ----------------------------------------------------------------------

 -------------
 H19 C24 S2 N1
 -------------
 Symbolic Z-matrix:
 Charge =  1 Multiplicity = 2

                         Standard orientation:
 ---------------------------------------------------------------------
 Center     Atomic      Atomic             Coordinates (Angstroms)
 Number     Number       Type             X           Y           Z
 ---------------------------------------------------------------------
      1          6           0       -3.352046    1.022081    0.901490
      2          6           0       -4.015603    0.124147    0.077833
      3         16           0       -3.193622   -0.833868   -1.176213
      4          6           0       -5.398593   -0.028228    0.207342
      5          6           0       -0.749106    0.373785   -1.531691
      6          6           0       -1.475477   -0.566990   -0.815552
      7          6           0       -4.041516    1.761821    1.844012
      8          6           0       -6.080951    0.720801    1.156415
      9          1           0       -7.475944   -0.835079   -0.458792
     10          6           0        0.601771    0.547170   -1.299188
     11          6           0       -0.823428   -1.336346    0.139234
     12          6           0        0.521569   -1.154920    0.389409
     13          6           0        1.255724   -0.212476   -0.331046
     14          1           0        1.160253    1.275483   -1.876291
     15          1           0       -1.383265   -2.076857    0.700814
     16          1           0        1.015474   -1.752114    1.147605
     17          6           0       -5.411167    1.613701    1.970885
     18          1           0       -2.279577    1.141824    0.800598
     19          1           0       -1.248138    0.967582   -2.290346
     20          1           0       -3.503227    2.458074    2.478369
     21          1           0       -7.154267    0.598627    1.263844
     22          1           0       -5.962434    2.189124    2.706912
     23         16           0       -6.238224   -1.192989   -0.835805
     24          7           0        2.627173   -0.037586   -0.087724
     25          6           0        3.438312   -1.140752    0.276409
     26          6           0        4.374889   -1.012928    1.295896
     27          6           0        3.317625   -2.356550   -0.387733
     28          6           0        5.179400   -2.084309    1.640010
     29          6           0        4.112866   -3.428755   -0.025756
     30          6           0        5.049979   -3.298472    0.986151
     31          1           0        4.470709   -0.064848    1.814448
     32          1           0        2.593785   -2.456724   -1.189607
     33          1           0        5.907450   -1.970366    2.436839
     34          1           0        4.006805   -4.372570   -0.551042
     35          1           0        5.677330   -4.139106    1.262850
     36          6           0        3.224517    1.239724   -0.221989
     37          6           0        4.446224    1.376745   -0.871250
     38          6           0        2.604731    2.367846    0.304633
     39          6           0        5.037460    2.622109   -0.986244
     40          6           0        3.193018    3.612223    0.169883
     41          6           0        4.413292    3.746533   -0.472133
     42          1           0        4.931907    0.498005   -1.282066
     43          1           0        1.656156    2.262505    0.820378
     44          1           0        5.992055    2.714270   -1.494403
     45          1           0        2.697309    4.484427    0.584059
     46          1           0        4.876004    4.722810   -0.569917
 ---------------------------------------------------------------------

 SCF Done:  E(ULC-wHPBE) =  -1775.91091657     A.U. after   33 cycles
 SCF Done:  E(ULC-wHPBE) =  -1775.92223314     a.u. after   42 cycles

 The electronic state is 2-A.
 Alpha  occ. eigenvalues --  -88.29157 -88.26435 -14.31188 -10.17300 -10.16420
 Alpha  occ. eigenvalues --  -10.16372 -10.14462 -10.12542 -10.12373 -10.11904
 Alpha  occ. eigenvalues --  -10.11815 -10.11797 -10.11762 -10.11518 -10.11502
 Alpha  occ. eigenvalues --  -10.10981 -10.10922 -10.10841 -10.10796 -10.10751
 Alpha  occ. eigenvalues --  -10.10714 -10.10702 -10.10476 -10.06945 -10.06392
 Alpha  occ. eigenvalues --  -10.05975 -10.05887  -7.88275  -7.85695  -5.90548
 Alpha  occ. eigenvalues --   -5.90038  -5.89292  -5.87932  -5.87452  -5.86720
 Alpha  occ. eigenvalues --   -1.16055  -1.03106  -1.02199  -1.00584  -0.98638
 Alpha  occ. eigenvalues --   -0.94788  -0.93023  -0.91271  -0.91222  -0.90717
 Alpha  occ. eigenvalues --   -0.90324  -0.89728  -0.87464  -0.83727  -0.81656
 Alpha  occ. eigenvalues --   -0.80904  -0.79289  -0.78158  -0.77359  -0.76905
 Alpha  occ. eigenvalues --   -0.74446  -0.73197  -0.72068  -0.71774  -0.70449
 Alpha  occ. eigenvalues --   -0.67256  -0.66299  -0.65799  -0.65325  -0.63378
 Alpha  occ. eigenvalues --   -0.63074  -0.62607  -0.61101  -0.60886  -0.60761
 Alpha  occ. eigenvalues --   -0.60292  -0.60116  -0.59768  -0.59458  -0.58163
 Alpha  occ. eigenvalues --   -0.57490  -0.56978  -0.56475  -0.55280  -0.54762
 Alpha  occ. eigenvalues --   -0.53818  -0.53546  -0.53241  -0.53016  -0.52121
 Alpha  occ. eigenvalues --   -0.51806  -0.51040  -0.50827  -0.49721  -0.47926
 Alpha  occ. eigenvalues --   -0.46592  -0.46021  -0.45878  -0.44837  -0.44693
 Alpha  occ. eigenvalues --   -0.44319  -0.43950  -0.43105  -0.40117  -0.37213
 Alpha  occ. eigenvalues --   -0.34906
 Alpha virt. eigenvalues --   -0.12943  -0.12141  -0.11808  -0.09998  -0.09570
 Alpha virt. eigenvalues --   -0.08150  -0.05944  -0.05533  -0.04406  -0.02858
 Alpha virt. eigenvalues --   -0.01180  -0.00959  -0.00242   0.00708   0.01009

  Beta  occ. eigenvalues --  -88.29139 -88.26430 -14.30413 -10.17332 -10.16450
  Beta  occ. eigenvalues --  -10.16400 -10.14270 -10.12388 -10.12241 -10.11785
  Beta  occ. eigenvalues --  -10.11696 -10.11681 -10.11646 -10.11576 -10.11557
  Beta  occ. eigenvalues --  -10.10864 -10.10827 -10.10809 -10.10799 -10.10787
  Beta  occ. eigenvalues --  -10.10755 -10.10734 -10.10461 -10.06937 -10.06397
  Beta  occ. eigenvalues --  -10.05975 -10.05873  -7.88256  -7.85690  -5.90540
  Beta  occ. eigenvalues --   -5.90021  -5.89242  -5.87928  -5.87448  -5.86707
  Beta  occ. eigenvalues --   -1.15059  -1.02878  -1.02010  -1.00333  -0.98562
  Beta  occ. eigenvalues --   -0.94549  -0.92832  -0.91119  -0.91087  -0.90581
  Beta  occ. eigenvalues --   -0.90238  -0.89624  -0.87123  -0.83618  -0.81586
  Beta  occ. eigenvalues --   -0.80680  -0.79095  -0.77910  -0.77199  -0.76765
  Beta  occ. eigenvalues --   -0.74302  -0.73148  -0.71911  -0.71622  -0.70389
  Beta  occ. eigenvalues --   -0.67104  -0.65969  -0.65306  -0.65187  -0.63226
  Beta  occ. eigenvalues --   -0.62982  -0.62506  -0.61024  -0.60753  -0.60642
  Beta  occ. eigenvalues --   -0.60204  -0.60064  -0.59664  -0.59394  -0.57845
  Beta  occ. eigenvalues --   -0.57304  -0.56486  -0.56113  -0.54987  -0.54714
  Beta  occ. eigenvalues --   -0.53651  -0.53359  -0.53046  -0.52731  -0.51961
  Beta  occ. eigenvalues --   -0.51712  -0.50852  -0.50481  -0.49190  -0.47862
  Beta  occ. eigenvalues --   -0.45990  -0.45594  -0.45167  -0.44567  -0.44215
  Beta  occ. eigenvalues --   -0.44079  -0.43357  -0.43017  -0.37024  -0.34543
  Beta virt. eigenvalues --   -0.25621  -0.12280  -0.11849  -0.11294  -0.09571
  Beta virt. eigenvalues --   -0.09223  -0.07276  -0.05859  -0.05457  -0.04257
  Beta virt. eigenvalues --   -0.02772  -0.01084  -0.00886  -0.00173   0.00772

 Mulliken charges and spin densities:
               1          2
     1  C    0.038330   0.007039
     2  C   -0.161113   0.011770
     3  S    0.086234   0.037193
     4  C   -0.125359   0.009972
     5  C   -0.039375  -0.061779
     6  C   -0.209462   0.146902
     7  C   -0.140254  -0.001265
     8  C   -0.021676  -0.005601
     9  H    0.118113  -0.000093
    10  C   -0.086892   0.112651
    11  C   -0.019900  -0.057138
    12  C   -0.096896   0.094846
    13  C   -0.011268  -0.005798
    14  H    0.185835  -0.004774
    15  H    0.157407   0.002558
    16  H    0.187502  -0.003826
    17  C   -0.107835   0.012327
    18  H    0.131929  -0.000535
    19  H    0.153036   0.002476
    20  H    0.112656   0.000351
    21  H    0.124996   0.000183
    22  H    0.124042  -0.000624
    23  S   -0.028599   0.011408
    24  N    0.094901   0.347089
    25  C   -0.114954  -0.006062
    26  C   -0.065080   0.080736
    27  C   -0.081206   0.081390
    28  C   -0.101123  -0.043715
    29  C   -0.101051  -0.044599
    30  C   -0.060632   0.112731
    31  H    0.169661  -0.003498
    32  H    0.177988  -0.003498
    33  H    0.146916   0.002382
    34  H    0.147162   0.002417
    35  H    0.150408  -0.005669
    36  C   -0.124032  -0.006506
    37  C   -0.058986   0.080291
    38  C   -0.077480   0.081763
    39  C   -0.102223  -0.043470
    40  C   -0.106195  -0.045105
    41  C   -0.058349   0.112691
    42  H    0.170701  -0.003513
    43  H    0.179593  -0.003216
    44  H    0.147222   0.002402
    45  H    0.145107   0.002385
    46  H    0.150201  -0.005670
 Sum of Mulliken charges =   1.00000   1.00000

 Dipole moment (field-independent basis, Debye):
    X=              9.3785    Y=              1.1555    Z=              1.3015  Tot=              9.5387
 Quadrupole moment (field-independent basis, Debye-Ang):
   XX=            -68.5644   YY=           -130.9133   ZZ=           -160.3254
   XY=             -5.3589   XZ=             -5.1369   YZ=             -1.2184

 Normal termination of Gaussian 16 at Mon Jan 18 18:18:32 2021.
