 Gaussian 16, Revision A.03,
 Gaussian 16:  EM64L-G16RevA.03 25-Dec-2016

 ----------------------------------------------------------------------
 #P LC-wHPBE/TZVP iop(3/107=0181000000, 3/108=0181000000) scf=(conver=6
 ,fermi,ndamp=35,noincfock,novaracc,vshift=500,xqc)
 ----------------------------------------------------------------------

 -------------
 H19 C24 S2 N1
 -------------
 Symbolic Z-matrix:
 Charge =  0 Multiplicity = 1

                         Standard orientation:
 ---------------------------------------------------------------------
 Center     Atomic      Atomic             Coordinates (Angstroms)
 Number     Number       Type             X           Y           Z
 ---------------------------------------------------------------------
      1          6           0       -3.352046    1.022081    0.901490
      2          6           0       -4.015603    0.124147    0.077833
      3         16           0       -3.193622   -0.833868   -1.176213
      4          6           0       -5.398593   -0.028228    0.207342
      5          6           0       -0.749106    0.373785   -1.531691
      6          6           0       -1.475477   -0.566990   -0.815552
      7          6           0       -4.041516    1.761821    1.844012
      8          6           0       -6.080951    0.720801    1.156415
      9          1           0       -7.475944   -0.835079   -0.458792
     10          6           0        0.601771    0.547170   -1.299188
     11          6           0       -0.823428   -1.336346    0.139234
     12          6           0        0.521569   -1.154920    0.389409
     13          6           0        1.255724   -0.212476   -0.331046
     14          1           0        1.160253    1.275483   -1.876291
     15          1           0       -1.383265   -2.076857    0.700814
     16          1           0        1.015474   -1.752114    1.147605
     17          6           0       -5.411167    1.613701    1.970885
     18          1           0       -2.279577    1.141824    0.800598
     19          1           0       -1.248138    0.967582   -2.290346
     20          1           0       -3.503227    2.458074    2.478369
     21          1           0       -7.154267    0.598627    1.263844
     22          1           0       -5.962434    2.189124    2.706912
     23         16           0       -6.238224   -1.192989   -0.835805
     24          7           0        2.627173   -0.037586   -0.087724
     25          6           0        3.438312   -1.140752    0.276409
     26          6           0        4.374889   -1.012928    1.295896
     27          6           0        3.317625   -2.356550   -0.387733
     28          6           0        5.179400   -2.084309    1.640010
     29          6           0        4.112866   -3.428755   -0.025756
     30          6           0        5.049979   -3.298472    0.986151
     31          1           0        4.470709   -0.064848    1.814448
     32          1           0        2.593785   -2.456724   -1.189607
     33          1           0        5.907450   -1.970366    2.436839
     34          1           0        4.006805   -4.372570   -0.551042
     35          1           0        5.677330   -4.139106    1.262850
     36          6           0        3.224517    1.239724   -0.221989
     37          6           0        4.446224    1.376745   -0.871250
     38          6           0        2.604731    2.367846    0.304633
     39          6           0        5.037460    2.622109   -0.986244
     40          6           0        3.193018    3.612223    0.169883
     41          6           0        4.413292    3.746533   -0.472133
     42          1           0        4.931907    0.498005   -1.282066
     43          1           0        1.656156    2.262505    0.820378
     44          1           0        5.992055    2.714270   -1.494403
     45          1           0        2.697309    4.484427    0.584059
     46          1           0        4.876004    4.722810   -0.569917
 ---------------------------------------------------------------------

 SCF Done:  E(RLC-wHPBE) =  -1776.21133472     A.U. after   15 cycles

 The electronic state is 1-A.
 Alpha  occ. eigenvalues --  -88.19432 -88.19347 -14.12953 -10.04141 -10.03589
 Alpha  occ. eigenvalues --  -10.03553 -10.02928 -10.02552 -10.02024  -9.99977
 Alpha  occ. eigenvalues --   -9.99952  -9.99583  -9.99552  -9.99525  -9.99522
 Alpha  occ. eigenvalues --   -9.99484  -9.99482  -9.99400  -9.99338  -9.99338
 Alpha  occ. eigenvalues --   -9.99335  -9.99317  -9.99145  -9.99109  -9.98905
 Alpha  occ. eigenvalues --   -9.98711  -9.98641  -7.78718  -7.78505  -5.80937
 Alpha  occ. eigenvalues --   -5.80751  -5.80454  -5.80243  -5.79698  -5.79484
 Alpha  occ. eigenvalues --   -1.00690  -0.91377  -0.90350  -0.90060  -0.88415
 Alpha  occ. eigenvalues --   -0.83854  -0.82705  -0.80644  -0.80073  -0.79196
 Alpha  occ. eigenvalues --   -0.78982  -0.78926  -0.76577  -0.74836  -0.72717
 Alpha  occ. eigenvalues --   -0.68320  -0.67726  -0.65929  -0.65738  -0.65333
 Alpha  occ. eigenvalues --   -0.64632  -0.62797  -0.62062  -0.59577  -0.59542
 Alpha  occ. eigenvalues --   -0.56822  -0.55288  -0.53965  -0.52916  -0.52747
 Alpha  occ. eigenvalues --   -0.52087  -0.51174  -0.50882  -0.49909  -0.49603
 Alpha  occ. eigenvalues --   -0.48965  -0.48725  -0.48227  -0.47960  -0.47797
 Alpha  occ. eigenvalues --   -0.47305  -0.46366  -0.45304  -0.44544  -0.44295
 Alpha  occ. eigenvalues --   -0.44145  -0.42921  -0.42128  -0.41549  -0.41122
 Alpha  occ. eigenvalues --   -0.40499  -0.40028  -0.39937  -0.39828  -0.38202
 Alpha  occ. eigenvalues --   -0.36748  -0.36128  -0.34909  -0.33479  -0.33454
 Alpha  occ. eigenvalues --   -0.33108  -0.32331  -0.32080  -0.28770  -0.26558
 Alpha  occ. eigenvalues --   -0.25329
 Alpha virt. eigenvalues --    0.01057   0.01523   0.02136   0.03390   0.03882
 Alpha virt. eigenvalues --    0.04097   0.04480   0.05288   0.06657   0.09068
 Alpha virt. eigenvalues --    0.10155   0.10496   0.10684   0.11746   0.12765

 Mulliken charges:
               1
     1  C    0.026027
     2  C   -0.171921
     3  S    0.023673
     4  C   -0.128103
     5  C   -0.062972
     6  C   -0.194239
     7  C   -0.145155
     8  C   -0.030706
     9  H    0.096072
    10  C   -0.114924
    11  C   -0.045043
    12  C   -0.121885
    13  C    0.003074
    14  H    0.155662
    15  H    0.120855
    16  H    0.157919
    17  C   -0.117652
    18  H    0.159636
    19  H    0.114480
    20  H    0.100121
    21  H    0.104635
    22  H    0.100874
    23  S   -0.052537
    24  N   -0.000967
    25  C   -0.097055
    26  C   -0.086702
    27  C   -0.099441
    28  C   -0.110102
    29  C   -0.110196
    30  C   -0.095251
    31  H    0.141656
    32  H    0.150260
    33  H    0.106107
    34  H    0.107088
    35  H    0.105932
    36  C   -0.105036
    37  C   -0.080890
    38  C   -0.095145
    39  C   -0.111439
    40  C   -0.115238
    41  C   -0.092921
    42  H    0.142687
    43  H    0.151245
    44  H    0.106251
    45  H    0.105519
    46  H    0.105747
 Sum of Mulliken charges =  -0.00000

 Dipole moment (field-independent basis, Debye):
    X=              2.2680    Y=              1.2370    Z=              1.4554  Tot=              2.9652
 Quadrupole moment (field-independent basis, Debye-Ang):
   XX=           -154.2957   YY=           -163.0872   ZZ=           -171.7244
   XY=             -5.4639   XZ=             -6.7196   YZ=              1.2020

 Normal termination of Gaussian 16 at Tue Jan 19 08:56:42 2021.
