 Gaussian 16, Revision A.03,
 Gaussian 16:  EM64L-G16RevA.03 25-Dec-2016

 ----------------------------------------------------------------------
 #P LC-wHPBE/TZVP iop(3/107=0328100000, 3/108=0328100000) scf=(conver=6
 ,fermi,ndamp=35,noincfock,novaracc,vshift=500,xqc)
 ----------------------------------------------------------------------

 -------------
 H19 C24 S2 N1
 -------------
 Symbolic Z-matrix:
 Charge =  0 Multiplicity = 1

                         Standard orientation:
 ---------------------------------------------------------------------
 Center     Atomic      Atomic             Coordinates (Angstroms)
 Number     Number       Type             X           Y           Z
 ---------------------------------------------------------------------
      1          6           0       -3.352046    1.022081    0.901490
      2          6           0       -4.015603    0.124147    0.077833
      3         16           0       -3.193622   -0.833868   -1.176213
      4          6           0       -5.398593   -0.028228    0.207342
      5          6           0       -0.749106    0.373785   -1.531691
      6          6           0       -1.475477   -0.566990   -0.815552
      7          6           0       -4.041516    1.761821    1.844012
      8          6           0       -6.080951    0.720801    1.156415
      9          1           0       -7.475944   -0.835079   -0.458792
     10          6           0        0.601771    0.547170   -1.299188
     11          6           0       -0.823428   -1.336346    0.139234
     12          6           0        0.521569   -1.154920    0.389409
     13          6           0        1.255724   -0.212476   -0.331046
     14          1           0        1.160253    1.275483   -1.876291
     15          1           0       -1.383265   -2.076857    0.700814
     16          1           0        1.015474   -1.752114    1.147605
     17          6           0       -5.411167    1.613701    1.970885
     18          1           0       -2.279577    1.141824    0.800598
     19          1           0       -1.248138    0.967582   -2.290346
     20          1           0       -3.503227    2.458074    2.478369
     21          1           0       -7.154267    0.598627    1.263844
     22          1           0       -5.962434    2.189124    2.706912
     23         16           0       -6.238224   -1.192989   -0.835805
     24          7           0        2.627173   -0.037586   -0.087724
     25          6           0        3.438312   -1.140752    0.276409
     26          6           0        4.374889   -1.012928    1.295896
     27          6           0        3.317625   -2.356550   -0.387733
     28          6           0        5.179400   -2.084309    1.640010
     29          6           0        4.112866   -3.428755   -0.025756
     30          6           0        5.049979   -3.298472    0.986151
     31          1           0        4.470709   -0.064848    1.814448
     32          1           0        2.593785   -2.456724   -1.189607
     33          1           0        5.907450   -1.970366    2.436839
     34          1           0        4.006805   -4.372570   -0.551042
     35          1           0        5.677330   -4.139106    1.262850
     36          6           0        3.224517    1.239724   -0.221989
     37          6           0        4.446224    1.376745   -0.871250
     38          6           0        2.604731    2.367846    0.304633
     39          6           0        5.037460    2.622109   -0.986244
     40          6           0        3.193018    3.612223    0.169883
     41          6           0        4.413292    3.746533   -0.472133
     42          1           0        4.931907    0.498005   -1.282066
     43          1           0        1.656156    2.262505    0.820378
     44          1           0        5.992055    2.714270   -1.494403
     45          1           0        2.697309    4.484427    0.584059
     46          1           0        4.876004    4.722810   -0.569917
 ---------------------------------------------------------------------

 SCF Done:  E(RLC-wHPBE) =  -1776.39690147     A.U. after   14 cycles

 The electronic state is 1-A.
 Alpha  occ. eigenvalues --  -88.27456 -88.27388 -14.20605 -10.12605 -10.11946
 Alpha  occ. eigenvalues --  -10.11901 -10.11481 -10.11122 -10.10331 -10.08319
 Alpha  occ. eigenvalues --  -10.08290 -10.07850 -10.07816 -10.07814 -10.07780
 Alpha  occ. eigenvalues --  -10.07776 -10.07684 -10.07682 -10.07614 -10.07545
 Alpha  occ. eigenvalues --  -10.07539 -10.07518 -10.07377 -10.07374 -10.07332
 Alpha  occ. eigenvalues --  -10.07214 -10.07130  -7.86945  -7.86753  -5.88901
 Alpha  occ. eigenvalues --   -5.88740  -5.88380  -5.88190  -5.87594  -5.87395
 Alpha  occ. eigenvalues --   -1.09110  -1.00168  -0.98987  -0.98600  -0.96824
 Alpha  occ. eigenvalues --   -0.92136  -0.90943  -0.88588  -0.88041  -0.87106
 Alpha  occ. eigenvalues --   -0.86866  -0.86822  -0.84277  -0.82444  -0.80121
 Alpha  occ. eigenvalues --   -0.75274  -0.74675  -0.72854  -0.72686  -0.72154
 Alpha  occ. eigenvalues --   -0.71436  -0.69478  -0.68702  -0.65838  -0.65808
 Alpha  occ. eigenvalues --   -0.63003  -0.61331  -0.59858  -0.58879  -0.58709
 Alpha  occ. eigenvalues --   -0.57786  -0.56902  -0.56600  -0.55598  -0.55251
 Alpha  occ. eigenvalues --   -0.54499  -0.54210  -0.53791  -0.53473  -0.53286
 Alpha  occ. eigenvalues --   -0.52705  -0.51777  -0.51250  -0.50071  -0.49850
 Alpha  occ. eigenvalues --   -0.49593  -0.47902  -0.47089  -0.46482  -0.46089
 Alpha  occ. eigenvalues --   -0.45228  -0.44832  -0.44780  -0.44608  -0.42815
 Alpha  occ. eigenvalues --   -0.41253  -0.40570  -0.39259  -0.36998  -0.36968
 Alpha  occ. eigenvalues --   -0.36597  -0.35770  -0.35473  -0.32466  -0.30006
 Alpha  occ. eigenvalues --   -0.28241
 Alpha virt. eigenvalues --    0.03423   0.03908   0.04602   0.05780   0.06196
 Alpha virt. eigenvalues --    0.06810   0.07137   0.08162   0.09496   0.11523
 Alpha virt. eigenvalues --    0.12924   0.13155   0.13300   0.14257   0.15205

 Mulliken charges:
               1
     1  C   -0.001698
     2  C   -0.171918
     3  S    0.049295
     4  C   -0.148803
     5  C   -0.069021
     6  C   -0.247230
     7  C   -0.161135
     8  C   -0.047995
     9  H    0.095050
    10  C   -0.130857
    11  C   -0.049042
    12  C   -0.138866
    13  C   -0.004849
    14  H    0.182097
    15  H    0.145079
    16  H    0.184178
    17  C   -0.139167
    18  H    0.181610
    19  H    0.138709
    20  H    0.122792
    21  H    0.127655
    22  H    0.123351
    23  S   -0.043053
    24  N   -0.050598
    25  C   -0.097417
    26  C   -0.107666
    27  C   -0.117660
    28  C   -0.124806
    29  C   -0.124645
    30  C   -0.122093
    31  H    0.166409
    32  H    0.174912
    33  H    0.126745
    34  H    0.127660
    35  H    0.126702
    36  C   -0.104295
    37  C   -0.102213
    38  C   -0.113671
    39  C   -0.126017
    40  C   -0.129075
    41  C   -0.120145
    42  H    0.167597
    43  H    0.174504
    44  H    0.126963
    45  H    0.126091
    46  H    0.126535
 Sum of Mulliken charges =  -0.00000

 Dipole moment (field-independent basis, Debye):
    X=              2.1331    Y=              1.4022    Z=              1.6303  Tot=              3.0288
 Quadrupole moment (field-independent basis, Debye-Ang):
   XX=           -152.6862   YY=           -162.0628   ZZ=           -170.9814
   XY=             -6.2556   XZ=             -7.5790   YZ=              1.2762

 Normal termination of Gaussian 16 at Mon Jan 18 14:07:24 2021.
