 Gaussian 16, Revision A.03,
 Gaussian 16:  EM64L-G16RevA.03 25-Dec-2016

 ----------------------------------------------------------------------
 #P LC-wHPBE/TZVP iop(3/107=0170800000, 3/108=0170800000) scf=(conver=6
 ,fermi,ndamp=35,noincfock,novaracc,vshift=500,xqc)
 ----------------------------------------------------------------------

 -------------
 H19 C24 S2 N1
 -------------
 Symbolic Z-matrix:
 Charge =  1 Multiplicity = 2

                         Standard orientation:
 ---------------------------------------------------------------------
 Center     Atomic      Atomic             Coordinates (Angstroms)
 Number     Number       Type             X           Y           Z
 ---------------------------------------------------------------------
      1          6           0       -3.352046    1.022081    0.901490
      2          6           0       -4.015603    0.124147    0.077833
      3         16           0       -3.193622   -0.833868   -1.176213
      4          6           0       -5.398593   -0.028228    0.207342
      5          6           0       -0.749106    0.373785   -1.531691
      6          6           0       -1.475477   -0.566990   -0.815552
      7          6           0       -4.041516    1.761821    1.844012
      8          6           0       -6.080951    0.720801    1.156415
      9          1           0       -7.475944   -0.835079   -0.458792
     10          6           0        0.601771    0.547170   -1.299188
     11          6           0       -0.823428   -1.336346    0.139234
     12          6           0        0.521569   -1.154920    0.389409
     13          6           0        1.255724   -0.212476   -0.331046
     14          1           0        1.160253    1.275483   -1.876291
     15          1           0       -1.383265   -2.076857    0.700814
     16          1           0        1.015474   -1.752114    1.147605
     17          6           0       -5.411167    1.613701    1.970885
     18          1           0       -2.279577    1.141824    0.800598
     19          1           0       -1.248138    0.967582   -2.290346
     20          1           0       -3.503227    2.458074    2.478369
     21          1           0       -7.154267    0.598627    1.263844
     22          1           0       -5.962434    2.189124    2.706912
     23         16           0       -6.238224   -1.192989   -0.835805
     24          7           0        2.627173   -0.037586   -0.087724
     25          6           0        3.438312   -1.140752    0.276409
     26          6           0        4.374889   -1.012928    1.295896
     27          6           0        3.317625   -2.356550   -0.387733
     28          6           0        5.179400   -2.084309    1.640010
     29          6           0        4.112866   -3.428755   -0.025756
     30          6           0        5.049979   -3.298472    0.986151
     31          1           0        4.470709   -0.064848    1.814448
     32          1           0        2.593785   -2.456724   -1.189607
     33          1           0        5.907450   -1.970366    2.436839
     34          1           0        4.006805   -4.372570   -0.551042
     35          1           0        5.677330   -4.139106    1.262850
     36          6           0        3.224517    1.239724   -0.221989
     37          6           0        4.446224    1.376745   -0.871250
     38          6           0        2.604731    2.367846    0.304633
     39          6           0        5.037460    2.622109   -0.986244
     40          6           0        3.193018    3.612223    0.169883
     41          6           0        4.413292    3.746533   -0.472133
     42          1           0        4.931907    0.498005   -1.282066
     43          1           0        1.656156    2.262505    0.820378
     44          1           0        5.992055    2.714270   -1.494403
     45          1           0        2.697309    4.484427    0.584059
     46          1           0        4.876004    4.722810   -0.569917
 ---------------------------------------------------------------------

 SCF Done:  E(ULC-wHPBE) =  -1775.93011884     A.U. after   33 cycles
 SCF Done:  E(ULC-wHPBE) =  -1775.94334713     a.u. after    7 cycles

 The electronic state is 2-A.
 Alpha  occ. eigenvalues --  -88.29599 -88.26901 -14.32480 -10.18272 -10.17496
 Alpha  occ. eigenvalues --  -10.17454 -10.15317 -10.13494 -10.13355 -10.12966
 Alpha  occ. eigenvalues --  -10.12887 -10.12870 -10.12839 -10.12360 -10.12346
 Alpha  occ. eigenvalues --  -10.12024 -10.11973 -10.11807 -10.11768 -10.11733
 Alpha  occ. eigenvalues --  -10.11725 -10.11393 -10.11004 -10.07535 -10.06968
 Alpha  occ. eigenvalues --  -10.06558 -10.06437  -7.88741  -7.86176  -5.91013
 Alpha  occ. eigenvalues --   -5.90497  -5.89716  -5.88404  -5.87921  -5.87176
 Alpha  occ. eigenvalues --   -1.17266  -1.04084  -1.03306  -1.01634  -0.99276
 Alpha  occ. eigenvalues --   -0.95658  -0.94081  -0.92227  -0.92188  -0.91778
 Alpha  occ. eigenvalues --   -0.91148  -0.90424  -0.88312  -0.84430  -0.82279
 Alpha  occ. eigenvalues --   -0.81899  -0.80115  -0.79113  -0.78323  -0.77839
 Alpha  occ. eigenvalues --   -0.75341  -0.73788  -0.72984  -0.72749  -0.70998
 Alpha  occ. eigenvalues --   -0.68170  -0.67210  -0.66766  -0.65965  -0.64237
 Alpha  occ. eigenvalues --   -0.63908  -0.63329  -0.61923  -0.61760  -0.61534
 Alpha  occ. eigenvalues --   -0.61092  -0.60686  -0.60552  -0.60346  -0.58953
 Alpha  occ. eigenvalues --   -0.58091  -0.57786  -0.57423  -0.55920  -0.55173
 Alpha  occ. eigenvalues --   -0.54625  -0.54275  -0.54075  -0.53537  -0.52861
 Alpha  occ. eigenvalues --   -0.52624  -0.51755  -0.51269  -0.50218  -0.48315
 Alpha  occ. eigenvalues --   -0.47118  -0.46757  -0.46580  -0.45406  -0.45313
 Alpha  occ. eigenvalues --   -0.44936  -0.44334  -0.43431  -0.40823  -0.37446
 Alpha  occ. eigenvalues --   -0.35098
 Alpha virt. eigenvalues --   -0.12630  -0.11865  -0.11573  -0.09668  -0.09310
 Alpha virt. eigenvalues --   -0.07862  -0.05261  -0.04846  -0.03725  -0.02523
 Alpha virt. eigenvalues --   -0.00804  -0.00564   0.00150   0.01111   0.01479

  Beta  occ. eigenvalues --  -88.29588 -88.26898 -14.31663 -10.18311 -10.17530
  Beta  occ. eigenvalues --  -10.17488 -10.15115 -10.13332 -10.13211 -10.12840
  Beta  occ. eigenvalues --  -10.12761 -10.12747 -10.12716 -10.12425 -10.12409
  Beta  occ. eigenvalues --  -10.11894 -10.11849 -10.11839 -10.11810 -10.11780
  Beta  occ. eigenvalues --  -10.11764 -10.11365 -10.10996 -10.07529 -10.06970
  Beta  occ. eigenvalues --  -10.06559 -10.06429  -7.88730  -7.86174  -5.91010
  Beta  occ. eigenvalues --   -5.90485  -5.89687  -5.88402  -5.87919  -5.87170
  Beta  occ. eigenvalues --   -1.16214  -1.03851  -1.03110  -1.01365  -0.99211
  Beta  occ. eigenvalues --   -0.95419  -0.93882  -0.92070  -0.92045  -0.91635
  Beta  occ. eigenvalues --   -0.91033  -0.90340  -0.87969  -0.84327  -0.82212
  Beta  occ. eigenvalues --   -0.81662  -0.79935  -0.78850  -0.78162  -0.77689
  Beta  occ. eigenvalues --   -0.75189  -0.73746  -0.72820  -0.72591  -0.70947
  Beta  occ. eigenvalues --   -0.68009  -0.66852  -0.66205  -0.65845  -0.64087
  Beta  occ. eigenvalues --   -0.63815  -0.63226  -0.61850  -0.61617  -0.61405
  Beta  occ. eigenvalues --   -0.60992  -0.60591  -0.60495  -0.60279  -0.58535
  Beta  occ. eigenvalues --   -0.57899  -0.57348  -0.57033  -0.55554  -0.55133
  Beta  occ. eigenvalues --   -0.54466  -0.54079  -0.53742  -0.53367  -0.52716
  Beta  occ. eigenvalues --   -0.52524  -0.51299  -0.51051  -0.49713  -0.48243
  Beta  occ. eigenvalues --   -0.46428  -0.46237  -0.45858  -0.45089  -0.44861
  Beta  occ. eigenvalues --   -0.44638  -0.43779  -0.43379  -0.37330  -0.34915
  Beta virt. eigenvalues --   -0.25422  -0.11927  -0.11543  -0.11047  -0.09201
  Beta virt. eigenvalues --   -0.08934  -0.06885  -0.05204  -0.04799  -0.03594
  Beta virt. eigenvalues --   -0.02434  -0.00719  -0.00482   0.00215   0.01167

 Mulliken charges and spin densities:
               1          2
     1  C    0.035235   0.005814
     2  C   -0.159107   0.009673
     3  S    0.082143   0.020732
     4  C   -0.126471   0.005377
     5  C   -0.040261  -0.067632
     6  C   -0.212647   0.155238
     7  C   -0.142328  -0.001378
     8  C   -0.024081  -0.003016
     9  H    0.116808   0.000062
    10  C   -0.086167   0.118572
    11  C   -0.020868  -0.063990
    12  C   -0.095716   0.104447
    13  C   -0.012974  -0.010967
    14  H    0.187513  -0.004985
    15  H    0.159284   0.002831
    16  H    0.189270  -0.004201
    17  C   -0.110012   0.006689
    18  H    0.130416  -0.000481
    19  H    0.154736   0.002886
    20  H    0.111918   0.000353
    21  H    0.125119   0.000115
    22  H    0.123621  -0.000331
    23  S   -0.032110   0.005460
    24  N    0.097517   0.366049
    25  C   -0.115420  -0.009489
    26  C   -0.064773   0.086090
    27  C   -0.080574   0.086897
    28  C   -0.102572  -0.048097
    29  C   -0.102488  -0.049122
    30  C   -0.060441   0.118653
    31  H    0.171732  -0.003718
    32  H    0.180642  -0.003720
    33  H    0.148583   0.002572
    34  H    0.148953   0.002610
    35  H    0.152179  -0.005939
    36  C   -0.124353  -0.010079
    37  C   -0.058821   0.085739
    38  C   -0.076832   0.087126
    39  C   -0.103711  -0.047923
    40  C   -0.107626  -0.049488
    41  C   -0.058173   0.118509
    42  H    0.172691  -0.003737
    43  H    0.182382  -0.003433
    44  H    0.148840   0.002597
    45  H    0.146987   0.002571
    46  H    0.151957  -0.005934
 Sum of Mulliken charges =   1.00000   1.00000

 Dipole moment (field-independent basis, Debye):
    X=             10.1920    Y=              1.1740    Z=              1.3111  Tot=             10.3428
 Quadrupole moment (field-independent basis, Debye-Ang):
   XX=            -69.6566   YY=           -130.4042   ZZ=           -160.3881
   XY=             -5.4963   XZ=             -5.0890   YZ=             -1.4796

 Normal termination of Gaussian 16 at Tue Jan 19 06:03:05 2021.
