 Gaussian 16, Revision A.03,
 Gaussian 16:  EM64L-G16RevA.03 25-Dec-2016

 ----------------------------------------------------------------------
 #P LC-wHPBE/TZVP iop(3/107=0221900000, 3/108=0221900000) scf=(conver=6
 ,fermi,ndamp=35,noincfock,novaracc,vshift=500,xqc)
 ----------------------------------------------------------------------

 -------------
 H19 C24 S2 N1
 -------------
 Symbolic Z-matrix:
 Charge =  1 Multiplicity = 2

                         Standard orientation:
 ---------------------------------------------------------------------
 Center     Atomic      Atomic             Coordinates (Angstroms)
 Number     Number       Type             X           Y           Z
 ---------------------------------------------------------------------
      1          6           0       -3.352046    1.022081    0.901490
      2          6           0       -4.015603    0.124147    0.077833
      3         16           0       -3.193622   -0.833868   -1.176213
      4          6           0       -5.398593   -0.028228    0.207342
      5          6           0       -0.749106    0.373785   -1.531691
      6          6           0       -1.475477   -0.566990   -0.815552
      7          6           0       -4.041516    1.761821    1.844012
      8          6           0       -6.080951    0.720801    1.156415
      9          1           0       -7.475944   -0.835079   -0.458792
     10          6           0        0.601771    0.547170   -1.299188
     11          6           0       -0.823428   -1.336346    0.139234
     12          6           0        0.521569   -1.154920    0.389409
     13          6           0        1.255724   -0.212476   -0.331046
     14          1           0        1.160253    1.275483   -1.876291
     15          1           0       -1.383265   -2.076857    0.700814
     16          1           0        1.015474   -1.752114    1.147605
     17          6           0       -5.411167    1.613701    1.970885
     18          1           0       -2.279577    1.141824    0.800598
     19          1           0       -1.248138    0.967582   -2.290346
     20          1           0       -3.503227    2.458074    2.478369
     21          1           0       -7.154267    0.598627    1.263844
     22          1           0       -5.962434    2.189124    2.706912
     23         16           0       -6.238224   -1.192989   -0.835805
     24          7           0        2.627173   -0.037586   -0.087724
     25          6           0        3.438312   -1.140752    0.276409
     26          6           0        4.374889   -1.012928    1.295896
     27          6           0        3.317625   -2.356550   -0.387733
     28          6           0        5.179400   -2.084309    1.640010
     29          6           0        4.112866   -3.428755   -0.025756
     30          6           0        5.049979   -3.298472    0.986151
     31          1           0        4.470709   -0.064848    1.814448
     32          1           0        2.593785   -2.456724   -1.189607
     33          1           0        5.907450   -1.970366    2.436839
     34          1           0        4.006805   -4.372570   -0.551042
     35          1           0        5.677330   -4.139106    1.262850
     36          6           0        3.224517    1.239724   -0.221989
     37          6           0        4.446224    1.376745   -0.871250
     38          6           0        2.604731    2.367846    0.304633
     39          6           0        5.037460    2.622109   -0.986244
     40          6           0        3.193018    3.612223    0.169883
     41          6           0        4.413292    3.746533   -0.472133
     42          1           0        4.931907    0.498005   -1.282066
     43          1           0        1.656156    2.262505    0.820378
     44          1           0        5.992055    2.714270   -1.494403
     45          1           0        2.697309    4.484427    0.584059
     46          1           0        4.876004    4.722810   -0.569917
 ---------------------------------------------------------------------

 SCF Done:  E(ULC-wHPBE) =  -1775.99940212     A.U. after   33 cycles
 SCF Done:  E(ULC-wHPBE) =  -1776.01561088     a.u. after   10 cycles

 The electronic state is 2-A.
 Alpha  occ. eigenvalues --  -88.32058 -88.29385 -14.36007 -10.21331 -10.20624
 Alpha  occ. eigenvalues --  -10.20587 -10.18258 -10.16529 -10.16435 -10.16089
 Alpha  occ. eigenvalues --  -10.16018 -10.16001 -10.15973 -10.15245 -10.15231
 Alpha  occ. eigenvalues --  -10.15096 -10.15051 -10.14827 -10.14791 -10.14757
 Alpha  occ. eigenvalues --  -10.14753 -10.14107 -10.13698 -10.10253 -10.09676
 Alpha  occ. eigenvalues --  -10.09288 -10.09136  -7.91266  -7.88717  -5.93491
 Alpha  occ. eigenvalues --   -5.92958  -5.92138  -5.90890  -5.90396  -5.89632
 Alpha  occ. eigenvalues --   -1.20749  -1.07265  -1.06579  -1.04842  -1.02172
 Alpha  occ. eigenvalues --   -0.98666  -0.97212  -0.95259  -0.95232  -0.94881
 Alpha  occ. eigenvalues --   -0.94087  -0.93228  -0.91197  -0.87162  -0.84919
 Alpha  occ. eigenvalues --   -0.84779  -0.82836  -0.81946  -0.81117  -0.80605
 Alpha  occ. eigenvalues --   -0.78037  -0.76275  -0.75645  -0.75464  -0.73391
 Alpha  occ. eigenvalues --   -0.70782  -0.69851  -0.69390  -0.68293  -0.66679
 Alpha  occ. eigenvalues --   -0.66348  -0.65683  -0.64341  -0.64205  -0.63839
 Alpha  occ. eigenvalues --   -0.63482  -0.63058  -0.62755  -0.62724  -0.61377
 Alpha  occ. eigenvalues --   -0.60443  -0.60023  -0.59952  -0.58094  -0.57093
 Alpha  occ. eigenvalues --   -0.56841  -0.56453  -0.56299  -0.55753  -0.54968
 Alpha  occ. eigenvalues --   -0.54792  -0.53887  -0.53111  -0.52064  -0.50103
 Alpha  occ. eigenvalues --   -0.48834  -0.48575  -0.48352  -0.47143  -0.47032
 Alpha  occ. eigenvalues --   -0.46655  -0.45968  -0.45085  -0.42541  -0.38793
 Alpha  occ. eigenvalues --   -0.36356
 Alpha virt. eigenvalues --   -0.11549  -0.10789  -0.10500  -0.08449  -0.08147
 Alpha virt. eigenvalues --   -0.06684  -0.03836  -0.03412  -0.02163  -0.01394
 Alpha virt. eigenvalues --    0.00356   0.00735   0.01341   0.02278   0.02856

  Beta  occ. eigenvalues --  -88.32055 -88.29385 -14.35110 -10.21397 -10.20679
  Beta  occ. eigenvalues --  -10.20642 -10.18036 -10.16348 -10.16265 -10.15947
  Beta  occ. eigenvalues --  -10.15875 -10.15862 -10.15834 -10.15331 -10.15316
  Beta  occ. eigenvalues --  -10.14949 -10.14901 -10.14886 -10.14849 -10.14820
  Beta  occ. eigenvalues --  -10.14808 -10.14081 -10.13697 -10.10250 -10.09676
  Beta  occ. eigenvalues --  -10.09289 -10.09134  -7.91262  -7.88716  -5.93494
  Beta  occ. eigenvalues --   -5.92953  -5.92128  -5.90890  -5.90395  -5.89631
  Beta  occ. eigenvalues --   -1.19598  -1.07024  -1.06375  -1.04545  -1.02114
  Beta  occ. eigenvalues --   -0.98419  -0.97006  -0.95104  -0.95070  -0.94730
  Beta  occ. eigenvalues --   -0.93950  -0.93146  -0.90820  -0.87060  -0.84849
  Beta  occ. eigenvalues --   -0.84522  -0.82661  -0.81655  -0.80953  -0.80443
  Beta  occ. eigenvalues --   -0.77878  -0.76233  -0.75476  -0.75299  -0.73343
  Beta  occ. eigenvalues --   -0.70601  -0.69384  -0.68755  -0.68161  -0.66529
  Beta  occ. eigenvalues --   -0.66249  -0.65573  -0.64264  -0.64039  -0.63694
  Beta  occ. eigenvalues --   -0.63361  -0.62934  -0.62686  -0.62670  -0.60867
  Beta  occ. eigenvalues --   -0.60055  -0.59730  -0.59489  -0.57558  -0.57045
  Beta  occ. eigenvalues --   -0.56667  -0.56256  -0.55920  -0.55520  -0.54820
  Beta  occ. eigenvalues --   -0.54681  -0.53140  -0.52944  -0.51482  -0.50015
  Beta  occ. eigenvalues --   -0.48004  -0.47945  -0.47526  -0.46802  -0.46458
  Beta  occ. eigenvalues --   -0.46366  -0.45258  -0.45055  -0.38752  -0.36309
  Beta virt. eigenvalues --   -0.24788  -0.10782  -0.10413  -0.09956  -0.07885
  Beta virt. eigenvalues --   -0.07694  -0.05433  -0.03804  -0.03387  -0.02034
  Beta virt. eigenvalues --   -0.01305   0.00437   0.00822   0.01399   0.02333

 Mulliken charges and spin densities:
               1          2
     1  C    0.025969   0.003974
     2  C   -0.157451   0.008806
     3  S    0.086846   0.004253
     4  C   -0.132242   0.001645
     5  C   -0.045084  -0.086236
     6  C   -0.226115   0.173584
     7  C   -0.147856  -0.000637
     8  C   -0.031048  -0.000791
     9  H    0.114990   0.000135
    10  C   -0.086824   0.135061
    11  C   -0.025268  -0.083931
    12  C   -0.096077   0.126051
    13  C   -0.019363  -0.030993
    14  H    0.194839  -0.005533
    15  H    0.165769   0.003670
    16  H    0.196688  -0.004988
    17  C   -0.116212   0.001822
    18  H    0.133672  -0.000428
    19  H    0.161007   0.003881
    20  H    0.115904   0.000280
    21  H    0.130068   0.000057
    22  H    0.127825  -0.000077
    23  S   -0.031362   0.001476
    24  N    0.097054   0.403856
    25  C   -0.117862  -0.024835
    26  C   -0.067251   0.099520
    27  C   -0.082103   0.100380
    28  C   -0.109027  -0.061896
    29  C   -0.108889  -0.063113
    30  C   -0.064359   0.131638
    31  H    0.178806  -0.004229
    32  H    0.188305  -0.004218
    33  H    0.153855   0.003109
    34  H    0.154340   0.003155
    35  H    0.157576  -0.006458
    36  C   -0.126296  -0.025646
    37  C   -0.061546   0.099314
    38  C   -0.078390   0.100440
    39  C   -0.110181  -0.061807
    40  C   -0.113833  -0.063283
    41  C   -0.062207   0.131367
    42  H    0.179742  -0.004254
    43  H    0.189736  -0.003922
    44  H    0.154079   0.003139
    45  H    0.152439   0.003111
    46  H    0.157337  -0.006448
 Sum of Mulliken charges =   1.00000   1.00000

 Dipole moment (field-independent basis, Debye):
    X=             10.8825    Y=              1.2370    Z=              1.3666  Tot=             11.0375
 Quadrupole moment (field-independent basis, Debye-Ang):
   XX=            -70.5037   YY=           -129.8840   ZZ=           -160.2820
   XY=             -5.8639   XZ=             -5.2996   YZ=             -1.6874

 Normal termination of Gaussian 16 at Mon Jan 18 13:57:47 2021.
