 Gaussian 16, Revision A.03,
 Gaussian 16:  EM64L-G16RevA.03 25-Dec-2016

 ----------------------------------------------------------------------
 #P LC-wHPBE/TZVP iop(3/107=0184100000, 3/108=0184100000) scf=(conver=6
 ,fermi,ndamp=35,noincfock,novaracc,vshift=500,xqc)
 ----------------------------------------------------------------------

 -------------
 H19 C24 S2 N1
 -------------
 Symbolic Z-matrix:
 Charge =  0 Multiplicity = 1

                         Standard orientation:
 ---------------------------------------------------------------------
 Center     Atomic      Atomic             Coordinates (Angstroms)
 Number     Number       Type             X           Y           Z
 ---------------------------------------------------------------------
      1          6           0       -3.352046    1.022081    0.901490
      2          6           0       -4.015603    0.124147    0.077833
      3         16           0       -3.193622   -0.833868   -1.176213
      4          6           0       -5.398593   -0.028228    0.207342
      5          6           0       -0.749106    0.373785   -1.531691
      6          6           0       -1.475477   -0.566990   -0.815552
      7          6           0       -4.041516    1.761821    1.844012
      8          6           0       -6.080951    0.720801    1.156415
      9          1           0       -7.475944   -0.835079   -0.458792
     10          6           0        0.601771    0.547170   -1.299188
     11          6           0       -0.823428   -1.336346    0.139234
     12          6           0        0.521569   -1.154920    0.389409
     13          6           0        1.255724   -0.212476   -0.331046
     14          1           0        1.160253    1.275483   -1.876291
     15          1           0       -1.383265   -2.076857    0.700814
     16          1           0        1.015474   -1.752114    1.147605
     17          6           0       -5.411167    1.613701    1.970885
     18          1           0       -2.279577    1.141824    0.800598
     19          1           0       -1.248138    0.967582   -2.290346
     20          1           0       -3.503227    2.458074    2.478369
     21          1           0       -7.154267    0.598627    1.263844
     22          1           0       -5.962434    2.189124    2.706912
     23         16           0       -6.238224   -1.192989   -0.835805
     24          7           0        2.627173   -0.037586   -0.087724
     25          6           0        3.438312   -1.140752    0.276409
     26          6           0        4.374889   -1.012928    1.295896
     27          6           0        3.317625   -2.356550   -0.387733
     28          6           0        5.179400   -2.084309    1.640010
     29          6           0        4.112866   -3.428755   -0.025756
     30          6           0        5.049979   -3.298472    0.986151
     31          1           0        4.470709   -0.064848    1.814448
     32          1           0        2.593785   -2.456724   -1.189607
     33          1           0        5.907450   -1.970366    2.436839
     34          1           0        4.006805   -4.372570   -0.551042
     35          1           0        5.677330   -4.139106    1.262850
     36          6           0        3.224517    1.239724   -0.221989
     37          6           0        4.446224    1.376745   -0.871250
     38          6           0        2.604731    2.367846    0.304633
     39          6           0        5.037460    2.622109   -0.986244
     40          6           0        3.193018    3.612223    0.169883
     41          6           0        4.413292    3.746533   -0.472133
     42          1           0        4.931907    0.498005   -1.282066
     43          1           0        1.656156    2.262505    0.820378
     44          1           0        5.992055    2.714270   -1.494403
     45          1           0        2.697309    4.484427    0.584059
     46          1           0        4.876004    4.722810   -0.569917
 ---------------------------------------------------------------------

 SCF Done:  E(RLC-wHPBE) =  -1776.21602572     A.U. after   15 cycles

 The electronic state is 1-A.
 Alpha  occ. eigenvalues --  -88.19600 -88.19515 -14.13113 -10.04319 -10.03764
 Alpha  occ. eigenvalues --  -10.03728 -10.03109 -10.02734 -10.02199 -10.00152
 Alpha  occ. eigenvalues --  -10.00127  -9.99757  -9.99726  -9.99699  -9.99696
 Alpha  occ. eigenvalues --   -9.99657  -9.99654  -9.99573  -9.99514  -9.99511
 Alpha  occ. eigenvalues --   -9.99510  -9.99489  -9.99319  -9.99283  -9.99085
 Alpha  occ. eigenvalues --   -9.98891  -9.98821  -7.78889  -7.78677  -5.81106
 Alpha  occ. eigenvalues --   -5.80920  -5.80622  -5.80411  -5.79865  -5.79651
 Alpha  occ. eigenvalues --   -1.00869  -0.91565  -0.90536  -0.90244  -0.88597
 Alpha  occ. eigenvalues --   -0.84037  -0.82888  -0.80821  -0.80251  -0.79373
 Alpha  occ. eigenvalues --   -0.79157  -0.79103  -0.76752  -0.75010  -0.72888
 Alpha  occ. eigenvalues --   -0.68483  -0.67890  -0.66091  -0.65902  -0.65493
 Alpha  occ. eigenvalues --   -0.64793  -0.62957  -0.62222  -0.59730  -0.59695
 Alpha  occ. eigenvalues --   -0.56975  -0.55438  -0.54110  -0.53062  -0.52895
 Alpha  occ. eigenvalues --   -0.52230  -0.51317  -0.51024  -0.50052  -0.49744
 Alpha  occ. eigenvalues --   -0.49103  -0.48863  -0.48366  -0.48097  -0.47934
 Alpha  occ. eigenvalues --   -0.47442  -0.46503  -0.45459  -0.44685  -0.44441
 Alpha  occ. eigenvalues --   -0.44288  -0.43050  -0.42254  -0.41675  -0.41249
 Alpha  occ. eigenvalues --   -0.40622  -0.40151  -0.40061  -0.39952  -0.38325
 Alpha  occ. eigenvalues --   -0.36869  -0.36251  -0.35029  -0.33583  -0.33558
 Alpha  occ. eigenvalues --   -0.33210  -0.32433  -0.32181  -0.28875  -0.26655
 Alpha  occ. eigenvalues --   -0.25412
 Alpha virt. eigenvalues --    0.01134   0.01604   0.02217   0.03471   0.03960
 Alpha virt. eigenvalues --    0.04186   0.04566   0.05377   0.06749   0.09149
 Alpha virt. eigenvalues --    0.10244   0.10581   0.10768   0.11827   0.12846

 Mulliken charges:
               1
     1  C    0.025526
     2  C   -0.171892
     3  S    0.024386
     4  C   -0.128408
     5  C   -0.063210
     6  C   -0.195116
     7  C   -0.145423
     8  C   -0.031089
     9  H    0.096018
    10  C   -0.115104
    11  C   -0.045239
    12  C   -0.122088
    13  C    0.003055
    14  H    0.156058
    15  H    0.121190
    16  H    0.158313
    17  C   -0.117924
    18  H    0.159994
    19  H    0.114816
    20  H    0.100423
    21  H    0.104973
    22  H    0.101183
    23  S   -0.052199
    24  N   -0.001946
    25  C   -0.096873
    26  C   -0.086940
    27  C   -0.099589
    28  C   -0.110408
    29  C   -0.110500
    30  C   -0.095607
    31  H    0.142006
    32  H    0.150615
    33  H    0.106364
    34  H    0.107346
    35  H    0.106198
    36  C   -0.104822
    37  C   -0.081139
    38  C   -0.095300
    39  C   -0.111743
    40  C   -0.115527
    41  C   -0.093283
    42  H    0.143041
    43  H    0.151566
    44  H    0.106511
    45  H    0.105774
    46  H    0.106013
 Sum of Mulliken charges =  -0.00000

 Dipole moment (field-independent basis, Debye):
    X=              2.2641    Y=              1.2411    Z=              1.4597  Tot=              2.9660
 Quadrupole moment (field-independent basis, Debye-Ang):
   XX=           -154.2628   YY=           -163.0669   ZZ=           -171.7070
   XY=             -5.4838   XZ=             -6.7411   YZ=              1.2035

 Normal termination of Gaussian 16 at Mon Jan 18 20:48:53 2021.
