 Gaussian 16, Revision A.03,
 Gaussian 16:  EM64L-G16RevA.03 25-Dec-2016

 ----------------------------------------------------------------------
 #P LC-wHPBE/TZVP iop(3/107=0179800000, 3/108=0179800000) scf=(conver=6
 ,fermi,ndamp=35,noincfock,novaracc,vshift=500,xqc)
 ----------------------------------------------------------------------

 -------------
 H19 C24 S2 N1
 -------------
 Symbolic Z-matrix:
 Charge =  1 Multiplicity = 2

                         Standard orientation:
 ---------------------------------------------------------------------
 Center     Atomic      Atomic             Coordinates (Angstroms)
 Number     Number       Type             X           Y           Z
 ---------------------------------------------------------------------
      1          6           0       -3.352046    1.022081    0.901490
      2          6           0       -4.015603    0.124147    0.077833
      3         16           0       -3.193622   -0.833868   -1.176213
      4          6           0       -5.398593   -0.028228    0.207342
      5          6           0       -0.749106    0.373785   -1.531691
      6          6           0       -1.475477   -0.566990   -0.815552
      7          6           0       -4.041516    1.761821    1.844012
      8          6           0       -6.080951    0.720801    1.156415
      9          1           0       -7.475944   -0.835079   -0.458792
     10          6           0        0.601771    0.547170   -1.299188
     11          6           0       -0.823428   -1.336346    0.139234
     12          6           0        0.521569   -1.154920    0.389409
     13          6           0        1.255724   -0.212476   -0.331046
     14          1           0        1.160253    1.275483   -1.876291
     15          1           0       -1.383265   -2.076857    0.700814
     16          1           0        1.015474   -1.752114    1.147605
     17          6           0       -5.411167    1.613701    1.970885
     18          1           0       -2.279577    1.141824    0.800598
     19          1           0       -1.248138    0.967582   -2.290346
     20          1           0       -3.503227    2.458074    2.478369
     21          1           0       -7.154267    0.598627    1.263844
     22          1           0       -5.962434    2.189124    2.706912
     23         16           0       -6.238224   -1.192989   -0.835805
     24          7           0        2.627173   -0.037586   -0.087724
     25          6           0        3.438312   -1.140752    0.276409
     26          6           0        4.374889   -1.012928    1.295896
     27          6           0        3.317625   -2.356550   -0.387733
     28          6           0        5.179400   -2.084309    1.640010
     29          6           0        4.112866   -3.428755   -0.025756
     30          6           0        5.049979   -3.298472    0.986151
     31          1           0        4.470709   -0.064848    1.814448
     32          1           0        2.593785   -2.456724   -1.189607
     33          1           0        5.907450   -1.970366    2.436839
     34          1           0        4.006805   -4.372570   -0.551042
     35          1           0        5.677330   -4.139106    1.262850
     36          6           0        3.224517    1.239724   -0.221989
     37          6           0        4.446224    1.376745   -0.871250
     38          6           0        2.604731    2.367846    0.304633
     39          6           0        5.037460    2.622109   -0.986244
     40          6           0        3.193018    3.612223    0.169883
     41          6           0        4.413292    3.746533   -0.472133
     42          1           0        4.931907    0.498005   -1.282066
     43          1           0        1.656156    2.262505    0.820378
     44          1           0        5.992055    2.714270   -1.494403
     45          1           0        2.697309    4.484427    0.584059
     46          1           0        4.876004    4.722810   -0.569917
 ---------------------------------------------------------------------

 SCF Done:  E(ULC-wHPBE) =  -1775.94260001     A.U. after   33 cycles
 SCF Done:  E(ULC-wHPBE) =  -1775.95638428     a.u. after   57 cycles

 The electronic state is 2-A.
 Alpha  occ. eigenvalues --  -88.29972 -88.27287 -14.33164 -10.18830 -10.18086
 Alpha  occ. eigenvalues --  -10.18046 -10.15836 -10.14045 -10.13920 -10.13553
 Alpha  occ. eigenvalues --  -10.13477 -10.13461 -10.13431 -10.12870 -10.12857
 Alpha  occ. eigenvalues --  -10.12601 -10.12553 -10.12371 -10.12334 -10.12300
 Alpha  occ. eigenvalues --  -10.12293 -10.11823 -10.11427 -10.07972 -10.07403
 Alpha  occ. eigenvalues --  -10.06997 -10.06864  -7.89126  -7.86572  -5.91393
 Alpha  occ. eigenvalues --   -5.90874  -5.90081  -5.88792  -5.88307  -5.87557
 Alpha  occ. eigenvalues --   -1.17926  -1.04659  -1.03920  -1.02228  -0.99744
 Alpha  occ. eigenvalues --   -0.96192  -0.94671  -0.92781  -0.92751  -0.92365
 Alpha  occ. eigenvalues --   -0.91669  -0.90892  -0.88827  -0.84899  -0.82721
 Alpha  occ. eigenvalues --   -0.82450  -0.80608  -0.79649  -0.78856  -0.78362
 Alpha  occ. eigenvalues --   -0.75850  -0.74206  -0.73493  -0.73278  -0.71397
 Alpha  occ. eigenvalues --   -0.68675  -0.67717  -0.67284  -0.66379  -0.64710
 Alpha  occ. eigenvalues --   -0.64380  -0.63759  -0.62391  -0.62239  -0.61966
 Alpha  occ. eigenvalues --   -0.61549  -0.61136  -0.60931  -0.60822  -0.59414
 Alpha  occ. eigenvalues --   -0.58509  -0.58212  -0.57930  -0.56317  -0.55491
 Alpha  occ. eigenvalues --   -0.55064  -0.54690  -0.54519  -0.53912  -0.53269
 Alpha  occ. eigenvalues --   -0.53059  -0.52170  -0.51580  -0.50543  -0.48613
 Alpha  occ. eigenvalues --   -0.47440  -0.47140  -0.46946  -0.45766  -0.45644
 Alpha  occ. eigenvalues --   -0.45263  -0.44612  -0.43703  -0.41182  -0.37661
 Alpha  occ. eigenvalues --   -0.35295
 Alpha virt. eigenvalues --   -0.12425  -0.11670  -0.11385  -0.09442  -0.09108
 Alpha virt. eigenvalues --   -0.07651  -0.04936  -0.04521  -0.03387  -0.02309
 Alpha virt. eigenvalues --   -0.00584  -0.00310   0.00382   0.01339   0.01761

  Beta  occ. eigenvalues --  -88.29964 -88.27285 -14.32328 -10.18874 -10.18124
  Beta  occ. eigenvalues --  -10.18084 -10.15629 -10.13879 -10.13770 -10.13423
  Beta  occ. eigenvalues --  -10.13348 -10.13334 -10.13304 -10.12939 -10.12924
  Beta  occ. eigenvalues --  -10.12466 -10.12417 -10.12415 -10.12379 -10.12350
  Beta  occ. eigenvalues --  -10.12336 -10.11796 -10.11421 -10.07967 -10.07404
  Beta  occ. eigenvalues --  -10.06998 -10.06859  -7.89118  -7.86570  -5.91392
  Beta  occ. eigenvalues --   -5.90865  -5.90059  -5.88791  -5.88306  -5.87553
  Beta  occ. eigenvalues --   -1.16851  -1.04424  -1.03722  -1.01953  -0.99683
  Beta  occ. eigenvalues --   -0.95953  -0.94469  -0.92625  -0.92603  -0.92220
  Beta  occ. eigenvalues --   -0.91545  -0.90811  -0.88480  -0.84797  -0.82655
  Beta  occ. eigenvalues --   -0.82208  -0.80432  -0.79380  -0.78694  -0.78209
  Beta  occ. eigenvalues --   -0.75696  -0.74165  -0.73328  -0.73119  -0.71348
  Beta  occ. eigenvalues --   -0.68510  -0.67341  -0.66704  -0.66257  -0.64560
  Beta  occ. eigenvalues --   -0.64285  -0.63655  -0.62317  -0.62092  -0.61833
  Beta  occ. eigenvalues --   -0.61443  -0.61024  -0.60888  -0.60753  -0.58967
  Beta  occ. eigenvalues --   -0.58277  -0.57817  -0.57524  -0.55916  -0.55450
  Beta  occ. eigenvalues --   -0.54904  -0.54501  -0.54148  -0.53755  -0.53127
  Beta  occ. eigenvalues --   -0.52956  -0.51623  -0.51397  -0.50034  -0.48537
  Beta  occ. eigenvalues --   -0.46714  -0.46585  -0.46209  -0.45419  -0.45195
  Beta  occ. eigenvalues --   -0.44958  -0.44048  -0.43660  -0.37571  -0.35165
  Beta virt. eigenvalues --   -0.25298  -0.11706  -0.11334  -0.10855  -0.08956
  Beta virt. eigenvalues --   -0.08716  -0.06620  -0.04888  -0.04481  -0.03260
  Beta virt. eigenvalues --   -0.02220  -0.00501  -0.00226   0.00445   0.01394

 Mulliken charges and spin densities:
               1          2
     1  C    0.033549   0.005231
     2  C   -0.158415   0.009191
     3  S    0.081719   0.015077
     4  C   -0.127294   0.003964
     5  C   -0.041008  -0.070859
     6  C   -0.214771   0.158906
     7  C   -0.143346  -0.001217
     8  C   -0.025386  -0.002177
     9  H    0.116307   0.000100
    10  C   -0.086049   0.121561
    11  C   -0.021614  -0.067643
    12  C   -0.095430   0.109018
    13  C   -0.014000  -0.014356
    14  H    0.188624  -0.005087
    15  H    0.160343   0.002983
    16  H    0.190419  -0.004374
    17  C   -0.111109   0.004866
    18  H    0.130391  -0.000461
    19  H    0.155730   0.003091
    20  H    0.112115   0.000339
    21  H    0.125631   0.000092
    22  H    0.123919  -0.000236
    23  S   -0.032704   0.003827
    24  N    0.098108   0.374598
    25  C   -0.115700  -0.011900
    26  C   -0.064904   0.088715
    27  C   -0.080520   0.089569
    28  C   -0.103602  -0.050524
    29  C   -0.103509  -0.051605
    30  C   -0.060761   0.121282
    31  H    0.172907  -0.003822
    32  H    0.182020  -0.003824
    33  H    0.149465   0.002670
    34  H    0.149877   0.002711
    35  H    0.153100  -0.006052
    36  C   -0.124537  -0.012552
    37  C   -0.059012   0.088404
    38  C   -0.076771   0.089741
    39  C   -0.104754  -0.050377
    40  C   -0.108625  -0.051912
    41  C   -0.058509   0.121097
    42  H    0.173845  -0.003843
    43  H    0.183747  -0.003536
    44  H    0.149707   0.002697
    45  H    0.147935   0.002669
    46  H    0.152872  -0.006045
 Sum of Mulliken charges =   1.00000   1.00000

 Dipole moment (field-independent basis, Debye):
    X=             10.4475    Y=              1.1855    Z=              1.3200  Tot=             10.5971
 Quadrupole moment (field-independent basis, Debye-Ang):
   XX=            -69.9820   YY=           -130.2345   ZZ=           -160.3889
   XY=             -5.5696   XZ=             -5.1025   YZ=             -1.5604

 Normal termination of Gaussian 16 at Tue Jan 19 04:17:35 2021.
