 Gaussian 16, Revision A.03,
 Gaussian 16:  EM64L-G16RevA.03 25-Dec-2016

 ----------------------------------------------------------------------
 #P LC-wHPBE/TZVP iop(3/107=0198600000, 3/108=0198600000) scf=(conver=6
 ,fermi,ndamp=35,noincfock,novaracc,vshift=500,xqc)
 ----------------------------------------------------------------------

 -------------
 H19 C24 S2 N1
 -------------
 Symbolic Z-matrix:
 Charge =  0 Multiplicity = 1

                         Standard orientation:
 ---------------------------------------------------------------------
 Center     Atomic      Atomic             Coordinates (Angstroms)
 Number     Number       Type             X           Y           Z
 ---------------------------------------------------------------------
      1          6           0       -3.352046    1.022081    0.901490
      2          6           0       -4.015603    0.124147    0.077833
      3         16           0       -3.193622   -0.833868   -1.176213
      4          6           0       -5.398593   -0.028228    0.207342
      5          6           0       -0.749106    0.373785   -1.531691
      6          6           0       -1.475477   -0.566990   -0.815552
      7          6           0       -4.041516    1.761821    1.844012
      8          6           0       -6.080951    0.720801    1.156415
      9          1           0       -7.475944   -0.835079   -0.458792
     10          6           0        0.601771    0.547170   -1.299188
     11          6           0       -0.823428   -1.336346    0.139234
     12          6           0        0.521569   -1.154920    0.389409
     13          6           0        1.255724   -0.212476   -0.331046
     14          1           0        1.160253    1.275483   -1.876291
     15          1           0       -1.383265   -2.076857    0.700814
     16          1           0        1.015474   -1.752114    1.147605
     17          6           0       -5.411167    1.613701    1.970885
     18          1           0       -2.279577    1.141824    0.800598
     19          1           0       -1.248138    0.967582   -2.290346
     20          1           0       -3.503227    2.458074    2.478369
     21          1           0       -7.154267    0.598627    1.263844
     22          1           0       -5.962434    2.189124    2.706912
     23         16           0       -6.238224   -1.192989   -0.835805
     24          7           0        2.627173   -0.037586   -0.087724
     25          6           0        3.438312   -1.140752    0.276409
     26          6           0        4.374889   -1.012928    1.295896
     27          6           0        3.317625   -2.356550   -0.387733
     28          6           0        5.179400   -2.084309    1.640010
     29          6           0        4.112866   -3.428755   -0.025756
     30          6           0        5.049979   -3.298472    0.986151
     31          1           0        4.470709   -0.064848    1.814448
     32          1           0        2.593785   -2.456724   -1.189607
     33          1           0        5.907450   -1.970366    2.436839
     34          1           0        4.006805   -4.372570   -0.551042
     35          1           0        5.677330   -4.139106    1.262850
     36          6           0        3.224517    1.239724   -0.221989
     37          6           0        4.446224    1.376745   -0.871250
     38          6           0        2.604731    2.367846    0.304633
     39          6           0        5.037460    2.622109   -0.986244
     40          6           0        3.193018    3.612223    0.169883
     41          6           0        4.413292    3.746533   -0.472133
     42          1           0        4.931907    0.498005   -1.282066
     43          1           0        1.656156    2.262505    0.820378
     44          1           0        5.992055    2.714270   -1.494403
     45          1           0        2.697309    4.484427    0.584059
     46          1           0        4.876004    4.722810   -0.569917
 ---------------------------------------------------------------------

 SCF Done:  E(RLC-wHPBE) =  -1776.23774231     A.U. after   15 cycles

 The electronic state is 1-A.
 Alpha  occ. eigenvalues --  -88.20387 -88.20303 -14.13862 -10.05150 -10.04585
 Alpha  occ. eigenvalues --  -10.04547 -10.03955 -10.03582 -10.03017 -10.00972
 Alpha  occ. eigenvalues --  -10.00946 -10.00570 -10.00539 -10.00511 -10.00508
 Alpha  occ. eigenvalues --  -10.00464 -10.00461 -10.00381 -10.00354 -10.00318
 Alpha  occ. eigenvalues --  -10.00317 -10.00296 -10.00130 -10.00093  -9.99923
 Alpha  occ. eigenvalues --   -9.99734  -9.99664  -7.79691  -7.79480  -5.81892
 Alpha  occ. eigenvalues --   -5.81709  -5.81405  -5.81196  -5.80645  -5.80432
 Alpha  occ. eigenvalues --   -1.01707  -0.92449  -0.91408  -0.91104  -0.89450
 Alpha  occ. eigenvalues --   -0.84891  -0.83742  -0.81645  -0.81081  -0.80194
 Alpha  occ. eigenvalues --   -0.79977  -0.79924  -0.77563  -0.75818  -0.73681
 Alpha  occ. eigenvalues --   -0.69237  -0.68646  -0.66841  -0.66660  -0.66236
 Alpha  occ. eigenvalues --   -0.65539  -0.63693  -0.62958  -0.60435  -0.60402
 Alpha  occ. eigenvalues --   -0.57681  -0.56124  -0.54779  -0.53736  -0.53577
 Alpha  occ. eigenvalues --   -0.52885  -0.51970  -0.51676  -0.50705  -0.50390
 Alpha  occ. eigenvalues --   -0.49739  -0.49495  -0.49005  -0.48729  -0.48562
 Alpha  occ. eigenvalues --   -0.48070  -0.47132  -0.46169  -0.45332  -0.45109
 Alpha  occ. eigenvalues --   -0.44941  -0.43638  -0.42834  -0.42249  -0.41831
 Alpha  occ. eigenvalues --   -0.41182  -0.40712  -0.40628  -0.40516  -0.38881
 Alpha  occ. eigenvalues --   -0.37420  -0.36806  -0.35576  -0.34047  -0.34023
 Alpha  occ. eigenvalues --   -0.33665  -0.32888  -0.32629  -0.29345  -0.27094
 Alpha  occ. eigenvalues --   -0.25784
 Alpha virt. eigenvalues --    0.01476   0.01960   0.02575   0.03826   0.04304
 Alpha virt. eigenvalues --    0.04578   0.04946   0.05776   0.07152   0.09511
 Alpha virt. eigenvalues --    0.10641   0.10957   0.11141   0.12186   0.13205

 Mulliken charges:
               1
     1  C    0.023085
     2  C   -0.171818
     3  S    0.027751
     4  C   -0.129989
     5  C   -0.064290
     6  C   -0.199497
     7  C   -0.146748
     8  C   -0.032914
     9  H    0.095772
    10  C   -0.116045
    11  C   -0.046113
    12  C   -0.123145
    13  C    0.002835
    14  H    0.158058
    15  H    0.122914
    16  H    0.160299
    17  C   -0.119348
    18  H    0.161749
    19  H    0.116544
    20  H    0.101991
    21  H    0.106687
    22  H    0.102777
    23  S   -0.050614
    24  N   -0.006652
    25  C   -0.096135
    26  C   -0.088217
    27  C   -0.100454
    28  C   -0.111874
    29  C   -0.111954
    30  C   -0.097463
    31  H    0.143790
    32  H    0.152421
    33  H    0.107722
    34  H    0.108706
    35  H    0.107591
    36  C   -0.103940
    37  C   -0.082467
    38  C   -0.096196
    39  C   -0.113199
    40  C   -0.116909
    41  C   -0.095171
    42  H    0.144849
    43  H    0.153206
    44  H    0.107878
    45  H    0.107123
    46  H    0.107407
 Sum of Mulliken charges =  -0.00000

 Dipole moment (field-independent basis, Debye):
    X=              2.2465    Y=              1.2600    Z=              1.4796  Tot=              2.9705
 Quadrupole moment (field-independent basis, Debye-Ang):
   XX=           -154.1067   YY=           -162.9704   ZZ=           -171.6263
   XY=             -5.5762   XZ=             -6.8408   YZ=              1.2104

 Normal termination of Gaussian 16 at Tue Jan 19 00:05:30 2021.
