 Gaussian 16, Revision A.03,
 Gaussian 16:  EM64L-G16RevA.03 25-Dec-2016

 ----------------------------------------------------------------------
 #P LC-wHPBE/TZVP iop(3/107=0180600000, 3/108=0180600000) scf=(conver=6
 ,fermi,ndamp=35,noincfock,novaracc,vshift=500,xqc)
 ----------------------------------------------------------------------

 -------------
 H19 C24 S2 N1
 -------------
 Symbolic Z-matrix:
 Charge =  0 Multiplicity = 1

                         Standard orientation:
 ---------------------------------------------------------------------
 Center     Atomic      Atomic             Coordinates (Angstroms)
 Number     Number       Type             X           Y           Z
 ---------------------------------------------------------------------
      1          6           0       -3.352046    1.022081    0.901490
      2          6           0       -4.015603    0.124147    0.077833
      3         16           0       -3.193622   -0.833868   -1.176213
      4          6           0       -5.398593   -0.028228    0.207342
      5          6           0       -0.749106    0.373785   -1.531691
      6          6           0       -1.475477   -0.566990   -0.815552
      7          6           0       -4.041516    1.761821    1.844012
      8          6           0       -6.080951    0.720801    1.156415
      9          1           0       -7.475944   -0.835079   -0.458792
     10          6           0        0.601771    0.547170   -1.299188
     11          6           0       -0.823428   -1.336346    0.139234
     12          6           0        0.521569   -1.154920    0.389409
     13          6           0        1.255724   -0.212476   -0.331046
     14          1           0        1.160253    1.275483   -1.876291
     15          1           0       -1.383265   -2.076857    0.700814
     16          1           0        1.015474   -1.752114    1.147605
     17          6           0       -5.411167    1.613701    1.970885
     18          1           0       -2.279577    1.141824    0.800598
     19          1           0       -1.248138    0.967582   -2.290346
     20          1           0       -3.503227    2.458074    2.478369
     21          1           0       -7.154267    0.598627    1.263844
     22          1           0       -5.962434    2.189124    2.706912
     23         16           0       -6.238224   -1.192989   -0.835805
     24          7           0        2.627173   -0.037586   -0.087724
     25          6           0        3.438312   -1.140752    0.276409
     26          6           0        4.374889   -1.012928    1.295896
     27          6           0        3.317625   -2.356550   -0.387733
     28          6           0        5.179400   -2.084309    1.640010
     29          6           0        4.112866   -3.428755   -0.025756
     30          6           0        5.049979   -3.298472    0.986151
     31          1           0        4.470709   -0.064848    1.814448
     32          1           0        2.593785   -2.456724   -1.189607
     33          1           0        5.907450   -1.970366    2.436839
     34          1           0        4.006805   -4.372570   -0.551042
     35          1           0        5.677330   -4.139106    1.262850
     36          6           0        3.224517    1.239724   -0.221989
     37          6           0        4.446224    1.376745   -0.871250
     38          6           0        2.604731    2.367846    0.304633
     39          6           0        5.037460    2.622109   -0.986244
     40          6           0        3.193018    3.612223    0.169883
     41          6           0        4.413292    3.746533   -0.472133
     42          1           0        4.931907    0.498005   -1.282066
     43          1           0        1.656156    2.262505    0.820378
     44          1           0        5.992055    2.714270   -1.494403
     45          1           0        2.697309    4.484427    0.584059
     46          1           0        4.876004    4.722810   -0.569917
 ---------------------------------------------------------------------

 SCF Done:  E(RLC-wHPBE) =  -1776.21072846     A.U. after   15 cycles

 The electronic state is 1-A.
 Alpha  occ. eigenvalues --  -88.19410 -88.19325 -14.12932 -10.04118 -10.03566
 Alpha  occ. eigenvalues --  -10.03530 -10.02905 -10.02529 -10.02001  -9.99954
 Alpha  occ. eigenvalues --   -9.99929  -9.99560  -9.99529  -9.99503  -9.99499
 Alpha  occ. eigenvalues --   -9.99462  -9.99460  -9.99378  -9.99316  -9.99315
 Alpha  occ. eigenvalues --   -9.99311  -9.99295  -9.99123  -9.99087  -9.98882
 Alpha  occ. eigenvalues --   -9.98687  -9.98618  -7.78696  -7.78483  -5.80916
 Alpha  occ. eigenvalues --   -5.80730  -5.80432  -5.80222  -5.79677  -5.79462
 Alpha  occ. eigenvalues --   -1.00667  -0.91352  -0.90326  -0.90036  -0.88391
 Alpha  occ. eigenvalues --   -0.83831  -0.82682  -0.80621  -0.80050  -0.79174
 Alpha  occ. eigenvalues --   -0.78959  -0.78903  -0.76555  -0.74813  -0.72695
 Alpha  occ. eigenvalues --   -0.68299  -0.67705  -0.65908  -0.65717  -0.65312
 Alpha  occ. eigenvalues --   -0.64611  -0.62776  -0.62042  -0.59557  -0.59522
 Alpha  occ. eigenvalues --   -0.56802  -0.55269  -0.53946  -0.52897  -0.52728
 Alpha  occ. eigenvalues --   -0.52069  -0.51156  -0.50863  -0.49891  -0.49584
 Alpha  occ. eigenvalues --   -0.48947  -0.48707  -0.48209  -0.47942  -0.47779
 Alpha  occ. eigenvalues --   -0.47287  -0.46348  -0.45284  -0.44525  -0.44276
 Alpha  occ. eigenvalues --   -0.44126  -0.42904  -0.42111  -0.41533  -0.41105
 Alpha  occ. eigenvalues --   -0.40483  -0.40013  -0.39921  -0.39811  -0.38186
 Alpha  occ. eigenvalues --   -0.36732  -0.36112  -0.34893  -0.33466  -0.33440
 Alpha  occ. eigenvalues --   -0.33095  -0.32318  -0.32067  -0.28757  -0.26545
 Alpha  occ. eigenvalues --   -0.25318
 Alpha virt. eigenvalues --    0.01047   0.01512   0.02126   0.03379   0.03872
 Alpha virt. eigenvalues --    0.04086   0.04469   0.05276   0.06646   0.09057
 Alpha virt. eigenvalues --    0.10143   0.10485   0.10673   0.11735   0.12754

 Mulliken charges:
               1
     1  C    0.026089
     2  C   -0.171924
     3  S    0.023581
     4  C   -0.128062
     5  C   -0.062941
     6  C   -0.194127
     7  C   -0.145122
     8  C   -0.030658
     9  H    0.096078
    10  C   -0.114901
    11  C   -0.045017
    12  C   -0.121859
    13  C    0.003075
    14  H    0.155611
    15  H    0.120813
    16  H    0.157869
    17  C   -0.117619
    18  H    0.159591
    19  H    0.114437
    20  H    0.100083
    21  H    0.104592
    22  H    0.100835
    23  S   -0.052581
    24  N   -0.000841
    25  C   -0.097079
    26  C   -0.086673
    27  C   -0.099423
    28  C   -0.110062
    29  C   -0.110156
    30  C   -0.095207
    31  H    0.141612
    32  H    0.150214
    33  H    0.106074
    34  H    0.107055
    35  H    0.105898
    36  C   -0.105063
    37  C   -0.080860
    38  C   -0.095126
    39  C   -0.111399
    40  C   -0.115200
    41  C   -0.092876
    42  H    0.142641
    43  H    0.151204
    44  H    0.106218
    45  H    0.105487
    46  H    0.105713
 Sum of Mulliken charges =  -0.00000

 Dipole moment (field-independent basis, Debye):
    X=              2.2685    Y=              1.2365    Z=              1.4548  Tot=              2.9650
 Quadrupole moment (field-independent basis, Debye-Ang):
   XX=           -154.2999   YY=           -163.0899   ZZ=           -171.7267
   XY=             -5.4612   XZ=             -6.7167   YZ=              1.2018

 Normal termination of Gaussian 16 at Tue Jan 19 15:29:21 2021.
