 Gaussian 16, Revision A.03,
 Gaussian 16:  EM64L-G16RevA.03 25-Dec-2016

 ----------------------------------------------------------------------
 #P LC-wHPBE/TZVP iop(3/107=0182200000, 3/108=0182200000) scf=(conver=6
 ,fermi,ndamp=35,noincfock,novaracc,vshift=500,xqc)
 ----------------------------------------------------------------------

 -------------
 H19 C24 S2 N1
 -------------
 Symbolic Z-matrix:
 Charge =  0 Multiplicity = 1

                         Standard orientation:
 ---------------------------------------------------------------------
 Center     Atomic      Atomic             Coordinates (Angstroms)
 Number     Number       Type             X           Y           Z
 ---------------------------------------------------------------------
      1          6           0       -3.352046    1.022081    0.901490
      2          6           0       -4.015603    0.124147    0.077833
      3         16           0       -3.193622   -0.833868   -1.176213
      4          6           0       -5.398593   -0.028228    0.207342
      5          6           0       -0.749106    0.373785   -1.531691
      6          6           0       -1.475477   -0.566990   -0.815552
      7          6           0       -4.041516    1.761821    1.844012
      8          6           0       -6.080951    0.720801    1.156415
      9          1           0       -7.475944   -0.835079   -0.458792
     10          6           0        0.601771    0.547170   -1.299188
     11          6           0       -0.823428   -1.336346    0.139234
     12          6           0        0.521569   -1.154920    0.389409
     13          6           0        1.255724   -0.212476   -0.331046
     14          1           0        1.160253    1.275483   -1.876291
     15          1           0       -1.383265   -2.076857    0.700814
     16          1           0        1.015474   -1.752114    1.147605
     17          6           0       -5.411167    1.613701    1.970885
     18          1           0       -2.279577    1.141824    0.800598
     19          1           0       -1.248138    0.967582   -2.290346
     20          1           0       -3.503227    2.458074    2.478369
     21          1           0       -7.154267    0.598627    1.263844
     22          1           0       -5.962434    2.189124    2.706912
     23         16           0       -6.238224   -1.192989   -0.835805
     24          7           0        2.627173   -0.037586   -0.087724
     25          6           0        3.438312   -1.140752    0.276409
     26          6           0        4.374889   -1.012928    1.295896
     27          6           0        3.317625   -2.356550   -0.387733
     28          6           0        5.179400   -2.084309    1.640010
     29          6           0        4.112866   -3.428755   -0.025756
     30          6           0        5.049979   -3.298472    0.986151
     31          1           0        4.470709   -0.064848    1.814448
     32          1           0        2.593785   -2.456724   -1.189607
     33          1           0        5.907450   -1.970366    2.436839
     34          1           0        4.006805   -4.372570   -0.551042
     35          1           0        5.677330   -4.139106    1.262850
     36          6           0        3.224517    1.239724   -0.221989
     37          6           0        4.446224    1.376745   -0.871250
     38          6           0        2.604731    2.367846    0.304633
     39          6           0        5.037460    2.622109   -0.986244
     40          6           0        3.193018    3.612223    0.169883
     41          6           0        4.413292    3.746533   -0.472133
     42          1           0        4.931907    0.498005   -1.282066
     43          1           0        1.656156    2.262505    0.820378
     44          1           0        5.992055    2.714270   -1.494403
     45          1           0        2.697309    4.484427    0.584059
     46          1           0        4.876004    4.722810   -0.569917
 ---------------------------------------------------------------------

 SCF Done:  E(RLC-wHPBE) =  -1776.21315220     A.U. after   15 cycles

 The electronic state is 1-A.
 Alpha  occ. eigenvalues --  -88.19497 -88.19412 -14.13015 -10.04210 -10.03657
 Alpha  occ. eigenvalues --  -10.03621 -10.02998 -10.02623 -10.02091 -10.00045
 Alpha  occ. eigenvalues --  -10.00019  -9.99650  -9.99619  -9.99593  -9.99589
 Alpha  occ. eigenvalues --   -9.99551  -9.99549  -9.99467  -9.99405  -9.99404
 Alpha  occ. eigenvalues --   -9.99404  -9.99384  -9.99212  -9.99176  -9.98975
 Alpha  occ. eigenvalues --   -9.98780  -9.98711  -7.78784  -7.78572  -5.81003
 Alpha  occ. eigenvalues --   -5.80817  -5.80519  -5.80308  -5.79763  -5.79549
 Alpha  occ. eigenvalues --   -1.00759  -0.91450  -0.90422  -0.90131  -0.88485
 Alpha  occ. eigenvalues --   -0.83925  -0.82776  -0.80713  -0.80142  -0.79265
 Alpha  occ. eigenvalues --   -0.79050  -0.78995  -0.76645  -0.74903  -0.72783
 Alpha  occ. eigenvalues --   -0.68383  -0.67790  -0.65992  -0.65802  -0.65395
 Alpha  occ. eigenvalues --   -0.64694  -0.62859  -0.62124  -0.59637  -0.59601
 Alpha  occ. eigenvalues --   -0.56881  -0.55346  -0.54021  -0.52973  -0.52804
 Alpha  occ. eigenvalues --   -0.52143  -0.51230  -0.50937  -0.49964  -0.49657
 Alpha  occ. eigenvalues --   -0.49019  -0.48779  -0.48281  -0.48013  -0.47850
 Alpha  occ. eigenvalues --   -0.47358  -0.46419  -0.45364  -0.44599  -0.44352
 Alpha  occ. eigenvalues --   -0.44200  -0.42971  -0.42177  -0.41598  -0.41171
 Alpha  occ. eigenvalues --   -0.40547  -0.40076  -0.39986  -0.39876  -0.38250
 Alpha  occ. eigenvalues --   -0.36795  -0.36176  -0.34956  -0.33519  -0.33494
 Alpha  occ. eigenvalues --   -0.33147  -0.32371  -0.32119  -0.28811  -0.26595
 Alpha  occ. eigenvalues --   -0.25361
 Alpha virt. eigenvalues --    0.01087   0.01554   0.02168   0.03421   0.03913
 Alpha virt. eigenvalues --    0.04132   0.04514   0.05323   0.06693   0.09099
 Alpha virt. eigenvalues --    0.10190   0.10529   0.10716   0.11777   0.12797

 Mulliken charges:
               1
     1  C    0.025834
     2  C   -0.171910
     3  S    0.023949
     4  C   -0.128220
     5  C   -0.063064
     6  C   -0.194575
     7  C   -0.145258
     8  C   -0.030854
     9  H    0.096051
    10  C   -0.114993
    11  C   -0.045119
    12  C   -0.121963
    13  C    0.003068
    14  H    0.155814
    15  H    0.120983
    16  H    0.158071
    17  C   -0.117756
    18  H    0.159774
    19  H    0.114608
    20  H    0.100236
    21  H    0.104765
    22  H    0.100993
    23  S   -0.052407
    24  N   -0.001345
    25  C   -0.096984
    26  C   -0.086793
    27  C   -0.099496
    28  C   -0.110220
    29  C   -0.110313
    30  C   -0.095387
    31  H    0.141790
    32  H    0.150396
    33  H    0.106205
    34  H    0.107187
    35  H    0.106033
    36  C   -0.104952
    37  C   -0.080985
    38  C   -0.095203
    39  C   -0.111556
    40  C   -0.115349
    41  C   -0.093059
    42  H    0.142823
    43  H    0.151368
    44  H    0.106350
    45  H    0.105617
    46  H    0.105848
 Sum of Mulliken charges =  -0.00000

 Dipole moment (field-independent basis, Debye):
    X=              2.2665    Y=              1.2386    Z=              1.4570  Tot=              2.9655
 Quadrupole moment (field-independent basis, Debye-Ang):
   XX=           -154.2830   YY=           -163.0794   ZZ=           -171.7177
   XY=             -5.4716   XZ=             -6.7279   YZ=              1.2026

 Normal termination of Gaussian 16 at Tue Jan 19 11:31:12 2021.
