 Gaussian 16, Revision A.03,
 Gaussian 16:  EM64L-G16RevA.03 25-Dec-2016

 ----------------------------------------------------------------------
 #P LC-wHPBE/TZVP iop(3/107=0179500000, 3/108=0179500000) scf=(conver=6
 ,fermi,ndamp=35,noincfock,novaracc,vshift=500,xqc)
 ----------------------------------------------------------------------

 -------------
 H19 C24 S2 N1
 -------------
 Symbolic Z-matrix:
 Charge =  0 Multiplicity = 1

                         Standard orientation:
 ---------------------------------------------------------------------
 Center     Atomic      Atomic             Coordinates (Angstroms)
 Number     Number       Type             X           Y           Z
 ---------------------------------------------------------------------
      1          6           0       -3.352046    1.022081    0.901490
      2          6           0       -4.015603    0.124147    0.077833
      3         16           0       -3.193622   -0.833868   -1.176213
      4          6           0       -5.398593   -0.028228    0.207342
      5          6           0       -0.749106    0.373785   -1.531691
      6          6           0       -1.475477   -0.566990   -0.815552
      7          6           0       -4.041516    1.761821    1.844012
      8          6           0       -6.080951    0.720801    1.156415
      9          1           0       -7.475944   -0.835079   -0.458792
     10          6           0        0.601771    0.547170   -1.299188
     11          6           0       -0.823428   -1.336346    0.139234
     12          6           0        0.521569   -1.154920    0.389409
     13          6           0        1.255724   -0.212476   -0.331046
     14          1           0        1.160253    1.275483   -1.876291
     15          1           0       -1.383265   -2.076857    0.700814
     16          1           0        1.015474   -1.752114    1.147605
     17          6           0       -5.411167    1.613701    1.970885
     18          1           0       -2.279577    1.141824    0.800598
     19          1           0       -1.248138    0.967582   -2.290346
     20          1           0       -3.503227    2.458074    2.478369
     21          1           0       -7.154267    0.598627    1.263844
     22          1           0       -5.962434    2.189124    2.706912
     23         16           0       -6.238224   -1.192989   -0.835805
     24          7           0        2.627173   -0.037586   -0.087724
     25          6           0        3.438312   -1.140752    0.276409
     26          6           0        4.374889   -1.012928    1.295896
     27          6           0        3.317625   -2.356550   -0.387733
     28          6           0        5.179400   -2.084309    1.640010
     29          6           0        4.112866   -3.428755   -0.025756
     30          6           0        5.049979   -3.298472    0.986151
     31          1           0        4.470709   -0.064848    1.814448
     32          1           0        2.593785   -2.456724   -1.189607
     33          1           0        5.907450   -1.970366    2.436839
     34          1           0        4.006805   -4.372570   -0.551042
     35          1           0        5.677330   -4.139106    1.262850
     36          6           0        3.224517    1.239724   -0.221989
     37          6           0        4.446224    1.376745   -0.871250
     38          6           0        2.604731    2.367846    0.304633
     39          6           0        5.037460    2.622109   -0.986244
     40          6           0        3.193018    3.612223    0.169883
     41          6           0        4.413292    3.746533   -0.472133
     42          1           0        4.931907    0.498005   -1.282066
     43          1           0        1.656156    2.262505    0.820378
     44          1           0        5.992055    2.714270   -1.494403
     45          1           0        2.697309    4.484427    0.584059
     46          1           0        4.876004    4.722810   -0.569917
 ---------------------------------------------------------------------

 SCF Done:  E(RLC-wHPBE) =  -1776.20906021     A.U. after   15 cycles

 The electronic state is 1-A.
 Alpha  occ. eigenvalues --  -88.19350 -88.19265 -14.12875 -10.04055 -10.03504
 Alpha  occ. eigenvalues --  -10.03468 -10.02840 -10.02464 -10.01939  -9.99892
 Alpha  occ. eigenvalues --   -9.99867  -9.99499  -9.99468  -9.99441  -9.99438
 Alpha  occ. eigenvalues --   -9.99401  -9.99398  -9.99317  -9.99255  -9.99254
 Alpha  occ. eigenvalues --   -9.99248  -9.99233  -9.99061  -9.99025  -9.98819
 Alpha  occ. eigenvalues --   -9.98623  -9.98554  -7.78635  -7.78422  -5.80856
 Alpha  occ. eigenvalues --   -5.80670  -5.80373  -5.80162  -5.79618  -5.79403
 Alpha  occ. eigenvalues --   -1.00604  -0.91285  -0.90260  -0.89971  -0.88326
 Alpha  occ. eigenvalues --   -0.83766  -0.82617  -0.80559  -0.79987  -0.79111
 Alpha  occ. eigenvalues --   -0.78896  -0.78841  -0.76493  -0.74751  -0.72634
 Alpha  occ. eigenvalues --   -0.68241  -0.67647  -0.65851  -0.65659  -0.65255
 Alpha  occ. eigenvalues --   -0.64554  -0.62720  -0.61985  -0.59503  -0.59467
 Alpha  occ. eigenvalues --   -0.56747  -0.55216  -0.53894  -0.52845  -0.52675
 Alpha  occ. eigenvalues --   -0.52018  -0.51105  -0.50813  -0.49840  -0.49534
 Alpha  occ. eigenvalues --   -0.48897  -0.48658  -0.48159  -0.47893  -0.47730
 Alpha  occ. eigenvalues --   -0.47238  -0.46299  -0.45229  -0.44475  -0.44224
 Alpha  occ. eigenvalues --   -0.44075  -0.42858  -0.42066  -0.41488  -0.41060
 Alpha  occ. eigenvalues --   -0.40439  -0.39969  -0.39877  -0.39767  -0.38143
 Alpha  occ. eigenvalues --   -0.36688  -0.36068  -0.34850  -0.33428  -0.33403
 Alpha  occ. eigenvalues --   -0.33058  -0.32282  -0.32031  -0.28720  -0.26510
 Alpha  occ. eigenvalues --   -0.25288
 Alpha virt. eigenvalues --    0.01019   0.01483   0.02097   0.03350   0.03844
 Alpha virt. eigenvalues --    0.04054   0.04438   0.05244   0.06613   0.09027
 Alpha virt. eigenvalues --    0.10111   0.10454   0.10642   0.11706   0.12725

 Mulliken charges:
               1
     1  C    0.026265
     2  C   -0.171936
     3  S    0.023329
     4  C   -0.127958
     5  C   -0.062856
     6  C   -0.193822
     7  C   -0.145029
     8  C   -0.030523
     9  H    0.096098
    10  C   -0.114839
    11  C   -0.044947
    12  C   -0.121789
    13  C    0.003080
    14  H    0.155474
    15  H    0.120698
    16  H    0.157733
    17  C   -0.117525
    18  H    0.159466
    19  H    0.114321
    20  H    0.099980
    21  H    0.104475
    22  H    0.100729
    23  S   -0.052700
    24  N   -0.000497
    25  C   -0.097146
    26  C   -0.086592
    27  C   -0.099374
    28  C   -0.109954
    29  C   -0.110048
    30  C   -0.095085
    31  H    0.141491
    32  H    0.150092
    33  H    0.105986
    34  H    0.106967
    35  H    0.105808
    36  C   -0.105142
    37  C   -0.080775
    38  C   -0.095075
    39  C   -0.111291
    40  C   -0.115098
    41  C   -0.092752
    42  H    0.142519
    43  H    0.151094
    44  H    0.106130
    45  H    0.105400
    46  H    0.105622
 Sum of Mulliken charges =  -0.00000

 Dipole moment (field-independent basis, Debye):
    X=              2.2699    Y=              1.2350    Z=              1.4533  Tot=              2.9647
 Quadrupole moment (field-independent basis, Debye-Ang):
   XX=           -154.3116   YY=           -163.0971   ZZ=           -171.7328
   XY=             -5.4542   XZ=             -6.7091   YZ=              1.2013

 Normal termination of Gaussian 16 at Tue Jan 19 06:16:08 2021.
