 Gaussian 16, Revision A.03,
 Gaussian 16:  EM64L-G16RevA.03 25-Dec-2016

 ----------------------------------------------------------------------
 #P LC-wHPBE/TZVP iop(3/107=0180600000, 3/108=0180600000) scf=(conver=6
 ,fermi,ndamp=35,noincfock,novaracc,vshift=500,xqc)
 ----------------------------------------------------------------------

 -------------
 H19 C24 S2 N1
 -------------
 Symbolic Z-matrix:
 Charge =  1 Multiplicity = 2

                         Standard orientation:
 ---------------------------------------------------------------------
 Center     Atomic      Atomic             Coordinates (Angstroms)
 Number     Number       Type             X           Y           Z
 ---------------------------------------------------------------------
      1          6           0       -3.352046    1.022081    0.901490
      2          6           0       -4.015603    0.124147    0.077833
      3         16           0       -3.193622   -0.833868   -1.176213
      4          6           0       -5.398593   -0.028228    0.207342
      5          6           0       -0.749106    0.373785   -1.531691
      6          6           0       -1.475477   -0.566990   -0.815552
      7          6           0       -4.041516    1.761821    1.844012
      8          6           0       -6.080951    0.720801    1.156415
      9          1           0       -7.475944   -0.835079   -0.458792
     10          6           0        0.601771    0.547170   -1.299188
     11          6           0       -0.823428   -1.336346    0.139234
     12          6           0        0.521569   -1.154920    0.389409
     13          6           0        1.255724   -0.212476   -0.331046
     14          1           0        1.160253    1.275483   -1.876291
     15          1           0       -1.383265   -2.076857    0.700814
     16          1           0        1.015474   -1.752114    1.147605
     17          6           0       -5.411167    1.613701    1.970885
     18          1           0       -2.279577    1.141824    0.800598
     19          1           0       -1.248138    0.967582   -2.290346
     20          1           0       -3.503227    2.458074    2.478369
     21          1           0       -7.154267    0.598627    1.263844
     22          1           0       -5.962434    2.189124    2.706912
     23         16           0       -6.238224   -1.192989   -0.835805
     24          7           0        2.627173   -0.037586   -0.087724
     25          6           0        3.438312   -1.140752    0.276409
     26          6           0        4.374889   -1.012928    1.295896
     27          6           0        3.317625   -2.356550   -0.387733
     28          6           0        5.179400   -2.084309    1.640010
     29          6           0        4.112866   -3.428755   -0.025756
     30          6           0        5.049979   -3.298472    0.986151
     31          1           0        4.470709   -0.064848    1.814448
     32          1           0        2.593785   -2.456724   -1.189607
     33          1           0        5.907450   -1.970366    2.436839
     34          1           0        4.006805   -4.372570   -0.551042
     35          1           0        5.677330   -4.139106    1.262850
     36          6           0        3.224517    1.239724   -0.221989
     37          6           0        4.446224    1.376745   -0.871250
     38          6           0        2.604731    2.367846    0.304633
     39          6           0        5.037460    2.622109   -0.986244
     40          6           0        3.193018    3.612223    0.169883
     41          6           0        4.413292    3.746533   -0.472133
     42          1           0        4.931907    0.498005   -1.282066
     43          1           0        1.656156    2.262505    0.820378
     44          1           0        5.992055    2.714270   -1.494403
     45          1           0        2.697309    4.484427    0.584059
     46          1           0        4.876004    4.722810   -0.569917
 ---------------------------------------------------------------------

 SCF Done:  E(ULC-wHPBE) =  -1775.94366456     A.U. after   33 cycles
 SCF Done:  E(ULC-wHPBE) =  -1775.95754061     a.u. after    7 cycles

 The electronic state is 2-A.
 Alpha  occ. eigenvalues --  -88.30008 -88.27324 -14.33222 -10.18879 -10.18136
 Alpha  occ. eigenvalues --  -10.18097 -10.15882 -10.14093 -10.13969 -10.13603
 Alpha  occ. eigenvalues --  -10.13528 -10.13511 -10.13481 -10.12915 -10.12902
 Alpha  occ. eigenvalues --  -10.12651 -10.12602 -10.12419 -10.12383 -10.12348
 Alpha  occ. eigenvalues --  -10.12342 -10.11863 -10.11467 -10.08013 -10.07444
 Alpha  occ. eigenvalues --  -10.07038 -10.06905  -7.89164  -7.86609  -5.91430
 Alpha  occ. eigenvalues --   -5.90911  -5.90117  -5.88829  -5.88344  -5.87594
 Alpha  occ. eigenvalues --   -1.17983  -1.04709  -1.03973  -1.02280  -0.99788
 Alpha  occ. eigenvalues --   -0.96240  -0.94721  -0.92830  -0.92800  -0.92416
 Alpha  occ. eigenvalues --   -0.91715  -0.90935  -0.88872  -0.84942  -0.82762
 Alpha  occ. eigenvalues --   -0.82497  -0.80651  -0.79695  -0.78902  -0.78407
 Alpha  occ. eigenvalues --   -0.75894  -0.74245  -0.73537  -0.73323  -0.71434
 Alpha  occ. eigenvalues --   -0.68718  -0.67760  -0.67328  -0.66416  -0.64750
 Alpha  occ. eigenvalues --   -0.64420  -0.63797  -0.62431  -0.62280  -0.62003
 Alpha  occ. eigenvalues --   -0.61588  -0.61175  -0.60965  -0.60863  -0.59454
 Alpha  occ. eigenvalues --   -0.58547  -0.58248  -0.57973  -0.56352  -0.55521
 Alpha  occ. eigenvalues --   -0.55101  -0.54725  -0.54556  -0.53946  -0.53304
 Alpha  occ. eigenvalues --   -0.53095  -0.52206  -0.51609  -0.50573  -0.48642
 Alpha  occ. eigenvalues --   -0.47468  -0.47172  -0.46976  -0.45796  -0.45673
 Alpha  occ. eigenvalues --   -0.45292  -0.44638  -0.43729  -0.41211  -0.37682
 Alpha  occ. eigenvalues --   -0.35314
 Alpha virt. eigenvalues --   -0.12407  -0.11652  -0.11367  -0.09421  -0.09088
 Alpha virt. eigenvalues --   -0.07631  -0.04911  -0.04495  -0.03359  -0.02290
 Alpha virt. eigenvalues --   -0.00565  -0.00287   0.00403   0.01359   0.01785

  Beta  occ. eigenvalues --  -88.30000 -88.27322 -14.32385 -10.18923 -10.18175
  Beta  occ. eigenvalues --  -10.18134 -10.15675 -10.13927 -10.13819 -10.13473
  Beta  occ. eigenvalues --  -10.13398 -10.13385 -10.13355 -10.12985 -10.12969
  Beta  occ. eigenvalues --  -10.12515 -10.12465 -10.12464 -10.12428 -10.12399
  Beta  occ. eigenvalues --  -10.12384 -10.11837 -10.11462 -10.08008 -10.07445
  Beta  occ. eigenvalues --  -10.07039 -10.06900  -7.89155  -7.86608  -5.91429
  Beta  occ. eigenvalues --   -5.90901  -5.90095  -5.88828  -5.88343  -5.87590
  Beta  occ. eigenvalues --   -1.16906  -1.04474  -1.03775  -1.02004  -0.99727
  Beta  occ. eigenvalues --   -0.96000  -0.94520  -0.92673  -0.92651  -0.92270
  Beta  occ. eigenvalues --   -0.91591  -0.90855  -0.88526  -0.84840  -0.82696
  Beta  occ. eigenvalues --   -0.82255  -0.80476  -0.79426  -0.78740  -0.78254
  Beta  occ. eigenvalues --   -0.75740  -0.74204  -0.73371  -0.73163  -0.71385
  Beta  occ. eigenvalues --   -0.68553  -0.67383  -0.66746  -0.66294  -0.64601
  Beta  occ. eigenvalues --   -0.64325  -0.63693  -0.62357  -0.62133  -0.61870
  Beta  occ. eigenvalues --   -0.61481  -0.61063  -0.60923  -0.60793  -0.59006
  Beta  occ. eigenvalues --   -0.58312  -0.57857  -0.57566  -0.55948  -0.55480
  Beta  occ. eigenvalues --   -0.54940  -0.54537  -0.54184  -0.53790  -0.53162
  Beta  occ. eigenvalues --   -0.52992  -0.51653  -0.51427  -0.50063  -0.48565
  Beta  occ. eigenvalues --   -0.46740  -0.46615  -0.46238  -0.45448  -0.45223
  Beta  occ. eigenvalues --   -0.44987  -0.44073  -0.43687  -0.37593  -0.35187
  Beta virt. eigenvalues --   -0.25287  -0.11686  -0.11315  -0.10837  -0.08934
  Beta virt. eigenvalues --   -0.08696  -0.06596  -0.04863  -0.04455  -0.03232
  Beta virt. eigenvalues --   -0.02200  -0.00482  -0.00204   0.00466   0.01414

 Mulliken charges and spin densities:
               1          2
     1  C    0.033408   0.005193
     2  C   -0.158380   0.009164
     3  S    0.081752   0.014737
     4  C   -0.127374   0.003886
     5  C   -0.041083  -0.071134
     6  C   -0.214961   0.159187
     7  C   -0.143432  -0.001205
     8  C   -0.025497  -0.002133
     9  H    0.116273   0.000102
    10  C   -0.086047   0.121810
    11  C   -0.021684  -0.067944
    12  C   -0.095420   0.109368
    13  C   -0.014087  -0.014653
    14  H    0.188727  -0.005095
    15  H    0.160434   0.002996
    16  H    0.190523  -0.004387
    17  C   -0.111200   0.004763
    18  H    0.130420  -0.000460
    19  H    0.155817   0.003107
    20  H    0.112155   0.000338
    21  H    0.125692   0.000091
    22  H    0.123965  -0.000231
    23  S   -0.032715   0.003738
    24  N    0.098134   0.375253
    25  C   -0.115723  -0.012123
    26  C   -0.064926   0.088924
    27  C   -0.080526   0.089780
    28  C   -0.103698  -0.050728
    29  C   -0.103605  -0.051812
    30  C   -0.060804   0.121479
    31  H    0.173008  -0.003830
    32  H    0.182132  -0.003832
    33  H    0.149539   0.002679
    34  H    0.149952   0.002719
    35  H    0.153176  -0.006060
    36  C   -0.124552  -0.012779
    37  C   -0.059038   0.088616
    38  C   -0.076777   0.089948
    39  C   -0.104850  -0.050583
    40  C   -0.108718  -0.052115
    41  C   -0.058553   0.121292
    42  H    0.173945  -0.003852
    43  H    0.183856  -0.003544
    44  H    0.149779   0.002706
    45  H    0.148012   0.002677
    46  H    0.152948  -0.006053
 Sum of Mulliken charges =   1.00000   1.00000

 Dipole moment (field-independent basis, Debye):
    X=             10.4626    Y=              1.1865    Z=              1.3209  Tot=             10.6122
 Quadrupole moment (field-independent basis, Debye-Ang):
   XX=            -70.0015   YY=           -130.2244   ZZ=           -160.3878
   XY=             -5.5757   XZ=             -5.1053   YZ=             -1.5649

 Normal termination of Gaussian 16 at Tue Jan 19 16:47:04 2021.
