 Gaussian 16, Revision A.03,
 Gaussian 16:  EM64L-G16RevA.03 25-Dec-2016

 ----------------------------------------------------------------------
 #P LC-wHPBE/TZVP iop(3/107=0170800000, 3/108=0170800000) scf=(conver=6
 ,fermi,ndamp=35,noincfock,novaracc,vshift=500,xqc)
 ----------------------------------------------------------------------

 -------------
 H19 C24 S2 N1
 -------------
 Symbolic Z-matrix:
 Charge =  0 Multiplicity = 1

                         Standard orientation:
 ---------------------------------------------------------------------
 Center     Atomic      Atomic             Coordinates (Angstroms)
 Number     Number       Type             X           Y           Z
 ---------------------------------------------------------------------
      1          6           0       -3.352046    1.022081    0.901490
      2          6           0       -4.015603    0.124147    0.077833
      3         16           0       -3.193622   -0.833868   -1.176213
      4          6           0       -5.398593   -0.028228    0.207342
      5          6           0       -0.749106    0.373785   -1.531691
      6          6           0       -1.475477   -0.566990   -0.815552
      7          6           0       -4.041516    1.761821    1.844012
      8          6           0       -6.080951    0.720801    1.156415
      9          1           0       -7.475944   -0.835079   -0.458792
     10          6           0        0.601771    0.547170   -1.299188
     11          6           0       -0.823428   -1.336346    0.139234
     12          6           0        0.521569   -1.154920    0.389409
     13          6           0        1.255724   -0.212476   -0.331046
     14          1           0        1.160253    1.275483   -1.876291
     15          1           0       -1.383265   -2.076857    0.700814
     16          1           0        1.015474   -1.752114    1.147605
     17          6           0       -5.411167    1.613701    1.970885
     18          1           0       -2.279577    1.141824    0.800598
     19          1           0       -1.248138    0.967582   -2.290346
     20          1           0       -3.503227    2.458074    2.478369
     21          1           0       -7.154267    0.598627    1.263844
     22          1           0       -5.962434    2.189124    2.706912
     23         16           0       -6.238224   -1.192989   -0.835805
     24          7           0        2.627173   -0.037586   -0.087724
     25          6           0        3.438312   -1.140752    0.276409
     26          6           0        4.374889   -1.012928    1.295896
     27          6           0        3.317625   -2.356550   -0.387733
     28          6           0        5.179400   -2.084309    1.640010
     29          6           0        4.112866   -3.428755   -0.025756
     30          6           0        5.049979   -3.298472    0.986151
     31          1           0        4.470709   -0.064848    1.814448
     32          1           0        2.593785   -2.456724   -1.189607
     33          1           0        5.907450   -1.970366    2.436839
     34          1           0        4.006805   -4.372570   -0.551042
     35          1           0        5.677330   -4.139106    1.262850
     36          6           0        3.224517    1.239724   -0.221989
     37          6           0        4.446224    1.376745   -0.871250
     38          6           0        2.604731    2.367846    0.304633
     39          6           0        5.037460    2.622109   -0.986244
     40          6           0        3.193018    3.612223    0.169883
     41          6           0        4.413292    3.746533   -0.472133
     42          1           0        4.931907    0.498005   -1.282066
     43          1           0        1.656156    2.262505    0.820378
     44          1           0        5.992055    2.714270   -1.494403
     45          1           0        2.697309    4.484427    0.584059
     46          1           0        4.876004    4.722810   -0.569917
 ---------------------------------------------------------------------

 SCF Done:  E(RLC-wHPBE) =  -1776.19582193     A.U. after   15 cycles

 The electronic state is 1-A.
 Alpha  occ. eigenvalues --  -88.18878 -88.18793 -14.12425 -10.03557 -10.03012
 Alpha  occ. eigenvalues --  -10.02977 -10.02332 -10.01955 -10.01447  -9.99400
 Alpha  occ. eigenvalues --   -9.99375  -9.99011  -9.98980  -9.98954  -9.98951
 Alpha  occ. eigenvalues --   -9.98917  -9.98914  -9.98832  -9.98771  -9.98770
 Alpha  occ. eigenvalues --   -9.98750  -9.98744  -9.98574  -9.98539  -9.98316
 Alpha  occ. eigenvalues --   -9.98117  -9.98048  -7.78155  -7.77941  -5.80384
 Alpha  occ. eigenvalues --   -5.80197  -5.79902  -5.79691  -5.79149  -5.78934
 Alpha  occ. eigenvalues --   -1.00102  -0.90757  -0.89737  -0.89456  -0.87814
 Alpha  occ. eigenvalues --   -0.83252  -0.82102  -0.80061  -0.79486  -0.78615
 Alpha  occ. eigenvalues --   -0.78401  -0.78344  -0.76001  -0.74261  -0.72151
 Alpha  occ. eigenvalues --   -0.67781  -0.67185  -0.65393  -0.65195  -0.64801
 Alpha  occ. eigenvalues --   -0.64097  -0.62267  -0.61533  -0.59068  -0.59031
 Alpha  occ. eigenvalues --   -0.56310  -0.54790  -0.53480  -0.52428  -0.52252
 Alpha  occ. eigenvalues --   -0.51609  -0.50700  -0.50408  -0.49434  -0.49132
 Alpha  occ. eigenvalues --   -0.48502  -0.48264  -0.47762  -0.47500  -0.47339
 Alpha  occ. eigenvalues --   -0.46846  -0.45907  -0.44787  -0.44072  -0.43806
 Alpha  occ. eigenvalues --   -0.43666  -0.42488  -0.41703  -0.41128  -0.40695
 Alpha  occ. eigenvalues --   -0.40087  -0.39617  -0.39522  -0.39411  -0.37791
 Alpha  occ. eigenvalues --   -0.36340  -0.35713  -0.34501  -0.33127  -0.33101
 Alpha  occ. eigenvalues --   -0.32763  -0.31986  -0.31740  -0.28418  -0.26227
 Alpha  occ. eigenvalues --   -0.25047
 Alpha virt. eigenvalues --    0.00792   0.01245   0.01859   0.03111   0.03614
 Alpha virt. eigenvalues --    0.03793   0.04187   0.04983   0.06345   0.08786
 Alpha virt. eigenvalues --    0.09850   0.10205   0.10395   0.11467   0.12485

 Mulliken charges:
               1
     1  C    0.027616
     2  C   -0.172054
     3  S    0.021359
     4  C   -0.127186
     5  C   -0.062176
     6  C   -0.191513
     7  C   -0.144322
     8  C   -0.029473
     9  H    0.096249
    10  C   -0.114386
    11  C   -0.044380
    12  C   -0.121273
    13  C    0.003071
    14  H    0.154437
    15  H    0.119841
    16  H    0.156702
    17  C   -0.116841
    18  H    0.158506
    19  H    0.113461
    20  H    0.099216
    21  H    0.103596
    22  H    0.099942
    23  S   -0.053635
    24  N    0.002172
    25  C   -0.097710
    26  C   -0.086012
    27  C   -0.099047
    28  C   -0.109115
    29  C   -0.109213
    30  C   -0.094189
    31  H    0.140589
    32  H    0.149171
    33  H    0.105344
    34  H    0.106323
    35  H    0.105141
    36  C   -0.105793
    37  C   -0.080163
    38  C   -0.094728
    39  C   -0.110458
    40  C   -0.114306
    41  C   -0.091838
    42  H    0.141601
    43  H    0.150269
    44  H    0.105483
    45  H    0.104764
    46  H    0.104956
 Sum of Mulliken charges =  -0.00000

 Dipole moment (field-independent basis, Debye):
    X=              2.2810    Y=              1.2236    Z=              1.4413  Tot=              2.9626
 Quadrupole moment (field-independent basis, Debye-Ang):
   XX=           -154.4025   YY=           -163.1533   ZZ=           -171.7815
   XY=             -5.3981   XZ=             -6.6486   YZ=              1.1970

 Normal termination of Gaussian 16 at Tue Jan 19 04:28:14 2021.
