 Gaussian 16, Revision A.03,
 Gaussian 16:  EM64L-G16RevA.03 25-Dec-2016

 ----------------------------------------------------------------------
 #P LC-wHPBE/TZVP iop(3/107=0181400000, 3/108=0181400000) scf=(conver=6
 ,fermi,ndamp=35,noincfock,novaracc,vshift=500,xqc)
 ----------------------------------------------------------------------

 -------------
 H19 C24 S2 N1
 -------------
 Symbolic Z-matrix:
 Charge =  1 Multiplicity = 2

                         Standard orientation:
 ---------------------------------------------------------------------
 Center     Atomic      Atomic             Coordinates (Angstroms)
 Number     Number       Type             X           Y           Z
 ---------------------------------------------------------------------
      1          6           0       -3.352046    1.022081    0.901490
      2          6           0       -4.015603    0.124147    0.077833
      3         16           0       -3.193622   -0.833868   -1.176213
      4          6           0       -5.398593   -0.028228    0.207342
      5          6           0       -0.749106    0.373785   -1.531691
      6          6           0       -1.475477   -0.566990   -0.815552
      7          6           0       -4.041516    1.761821    1.844012
      8          6           0       -6.080951    0.720801    1.156415
      9          1           0       -7.475944   -0.835079   -0.458792
     10          6           0        0.601771    0.547170   -1.299188
     11          6           0       -0.823428   -1.336346    0.139234
     12          6           0        0.521569   -1.154920    0.389409
     13          6           0        1.255724   -0.212476   -0.331046
     14          1           0        1.160253    1.275483   -1.876291
     15          1           0       -1.383265   -2.076857    0.700814
     16          1           0        1.015474   -1.752114    1.147605
     17          6           0       -5.411167    1.613701    1.970885
     18          1           0       -2.279577    1.141824    0.800598
     19          1           0       -1.248138    0.967582   -2.290346
     20          1           0       -3.503227    2.458074    2.478369
     21          1           0       -7.154267    0.598627    1.263844
     22          1           0       -5.962434    2.189124    2.706912
     23         16           0       -6.238224   -1.192989   -0.835805
     24          7           0        2.627173   -0.037586   -0.087724
     25          6           0        3.438312   -1.140752    0.276409
     26          6           0        4.374889   -1.012928    1.295896
     27          6           0        3.317625   -2.356550   -0.387733
     28          6           0        5.179400   -2.084309    1.640010
     29          6           0        4.112866   -3.428755   -0.025756
     30          6           0        5.049979   -3.298472    0.986151
     31          1           0        4.470709   -0.064848    1.814448
     32          1           0        2.593785   -2.456724   -1.189607
     33          1           0        5.907450   -1.970366    2.436839
     34          1           0        4.006805   -4.372570   -0.551042
     35          1           0        5.677330   -4.139106    1.262850
     36          6           0        3.224517    1.239724   -0.221989
     37          6           0        4.446224    1.376745   -0.871250
     38          6           0        2.604731    2.367846    0.304633
     39          6           0        5.037460    2.622109   -0.986244
     40          6           0        3.193018    3.612223    0.169883
     41          6           0        4.413292    3.746533   -0.472133
     42          1           0        4.931907    0.498005   -1.282066
     43          1           0        1.656156    2.262505    0.820378
     44          1           0        5.992055    2.714270   -1.494403
     45          1           0        2.697309    4.484427    0.584059
     46          1           0        4.876004    4.722810   -0.569917
 ---------------------------------------------------------------------

 SCF Done:  E(ULC-wHPBE) =  -1775.94502369     A.U. after   33 cycles
 SCF Done:  E(ULC-wHPBE) =  -1775.95869634     a.u. after   56 cycles

 The electronic state is 2-A.
 Alpha  occ. eigenvalues --  -88.30043 -88.27360 -14.33280 -10.18927 -10.18187
 Alpha  occ. eigenvalues --  -10.18148 -10.15928 -10.14141 -10.14018 -10.13654
 Alpha  occ. eigenvalues --  -10.13579 -10.13563 -10.13533 -10.12960 -10.12947
 Alpha  occ. eigenvalues --  -10.12701 -10.12653 -10.12469 -10.12432 -10.12398
 Alpha  occ. eigenvalues --  -10.12392 -10.11903 -10.11506 -10.08053 -10.07483
 Alpha  occ. eigenvalues --  -10.07078 -10.06944  -7.89199  -7.86646  -5.91465
 Alpha  occ. eigenvalues --   -5.90946  -5.90151  -5.88865  -5.88380  -5.87629
 Alpha  occ. eigenvalues --   -1.18040  -1.04760  -1.04027  -1.02332  -0.99831
 Alpha  occ. eigenvalues --   -0.96287  -0.94773  -0.92879  -0.92850  -0.92467
 Alpha  occ. eigenvalues --   -0.91762  -0.90977  -0.88918  -0.84984  -0.82802
 Alpha  occ. eigenvalues --   -0.82545  -0.80695  -0.79742  -0.78948  -0.78453
 Alpha  occ. eigenvalues --   -0.75938  -0.74283  -0.73581  -0.73369  -0.71470
 Alpha  occ. eigenvalues --   -0.68762  -0.67804  -0.67372  -0.66452  -0.64791
 Alpha  occ. eigenvalues --   -0.64461  -0.63834  -0.62472  -0.62322  -0.62041
 Alpha  occ. eigenvalues --   -0.61627  -0.61215  -0.60998  -0.60904  -0.59494
 Alpha  occ. eigenvalues --   -0.58584  -0.58284  -0.58016  -0.56387  -0.55550
 Alpha  occ. eigenvalues --   -0.55138  -0.54762  -0.54595  -0.53980  -0.53339
 Alpha  occ. eigenvalues --   -0.53132  -0.52242  -0.51637  -0.50601  -0.48668
 Alpha  occ. eigenvalues --   -0.47496  -0.47205  -0.47007  -0.45827  -0.45702
 Alpha  occ. eigenvalues --   -0.45320  -0.44663  -0.43753  -0.41242  -0.37701
 Alpha  occ. eigenvalues --   -0.35332
 Alpha virt. eigenvalues --   -0.12389  -0.11635  -0.11350  -0.09402  -0.09071
 Alpha virt. eigenvalues --   -0.07612  -0.04883  -0.04467  -0.03331  -0.02271
 Alpha virt. eigenvalues --   -0.00546  -0.00265   0.00423   0.01378   0.01809

  Beta  occ. eigenvalues --  -88.30035 -88.27358 -14.32441 -10.18972 -10.18226
  Beta  occ. eigenvalues --  -10.18186 -10.15721 -10.13975 -10.13867 -10.13524
  Beta  occ. eigenvalues --  -10.13449 -10.13436 -10.13406 -10.13030 -10.13015
  Beta  occ. eigenvalues --  -10.12566 -10.12515 -10.12515 -10.12478 -10.12449
  Beta  occ. eigenvalues --  -10.12435 -10.11876 -10.11501 -10.08048 -10.07484
  Beta  occ. eigenvalues --  -10.07079 -10.06939  -7.89191  -7.86644  -5.91465
  Beta  occ. eigenvalues --   -5.90936  -5.90129  -5.88864  -5.88378  -5.87625
  Beta  occ. eigenvalues --   -1.16961  -1.04525  -1.03828  -1.02055  -0.99770
  Beta  occ. eigenvalues --   -0.96047  -0.94571  -0.92722  -0.92700  -0.92322
  Beta  occ. eigenvalues --   -0.91636  -0.90897  -0.88571  -0.84882  -0.82735
  Beta  occ. eigenvalues --   -0.82302  -0.80520  -0.79472  -0.78786  -0.78299
  Beta  occ. eigenvalues --   -0.75784  -0.74242  -0.73415  -0.73209  -0.71421
  Beta  occ. eigenvalues --   -0.68596  -0.67425  -0.66789  -0.66330  -0.64642
  Beta  occ. eigenvalues --   -0.64366  -0.63730  -0.62398  -0.62174  -0.61908
  Beta  occ. eigenvalues --   -0.61521  -0.61103  -0.60956  -0.60834  -0.59043
  Beta  occ. eigenvalues --   -0.58345  -0.57898  -0.57608  -0.55980  -0.55508
  Beta  occ. eigenvalues --   -0.54978  -0.54574  -0.54219  -0.53824  -0.53198
  Beta  occ. eigenvalues --   -0.53030  -0.51682  -0.51457  -0.50091  -0.48592
  Beta  occ. eigenvalues --   -0.46765  -0.46644  -0.46268  -0.45477  -0.45251
  Beta  occ. eigenvalues --   -0.45014  -0.44096  -0.43712  -0.37615  -0.35210
  Beta virt. eigenvalues --   -0.25276  -0.11667  -0.11297  -0.10820  -0.08913
  Beta virt. eigenvalues --   -0.08677  -0.06573  -0.04837  -0.04429  -0.03204
  Beta virt. eigenvalues --   -0.02182  -0.00463  -0.00181   0.00486   0.01433

 Mulliken charges and spin densities:
               1          2
     1  C    0.033255   0.005140
     2  C   -0.158310   0.009135
     3  S    0.081738   0.014253
     4  C   -0.127446   0.003763
     5  C   -0.041148  -0.071429
     6  C   -0.215167   0.159513
     7  C   -0.143520  -0.001183
     8  C   -0.025614  -0.002054
     9  H    0.116228   0.000105
    10  C   -0.086045   0.122076
    11  C   -0.021750  -0.068280
    12  C   -0.095401   0.109781
    13  C   -0.014188  -0.014970
    14  H    0.188830  -0.005104
    15  H    0.160533   0.003010
    16  H    0.190630  -0.004403
    17  C   -0.111297   0.004604
    18  H    0.130421  -0.000459
    19  H    0.155911   0.003126
    20  H    0.112179   0.000337
    21  H    0.125742   0.000089
    22  H    0.123997  -0.000222
    23  S   -0.032752   0.003607
    24  N    0.098161   0.375996
    25  C   -0.115757  -0.012346
    26  C   -0.064945   0.089162
    27  C   -0.080529   0.090022
    28  C   -0.103792  -0.050953
    29  C   -0.103698  -0.052042
    30  C   -0.060840   0.121722
    31  H    0.173118  -0.003840
    32  H    0.182261  -0.003841
    33  H    0.149622   0.002688
    34  H    0.150040   0.002728
    35  H    0.153264  -0.006070
    36  C   -0.124577  -0.013008
    37  C   -0.059063   0.088858
    38  C   -0.076780   0.090185
    39  C   -0.104945  -0.050810
    40  C   -0.108808  -0.052340
    41  C   -0.058592   0.121530
    42  H    0.174053  -0.003861
    43  H    0.183983  -0.003554
    44  H    0.149862   0.002715
    45  H    0.148102   0.002686
    46  H    0.153035  -0.006064
 Sum of Mulliken charges =   1.00000   1.00000

 Dipole moment (field-independent basis, Debye):
    X=             10.4833    Y=              1.1875    Z=              1.3217  Tot=             10.6328
 Quadrupole moment (field-independent basis, Debye-Ang):
   XX=            -70.0259   YY=           -130.2094   ZZ=           -160.3876
   XY=             -5.5820   XZ=             -5.1064   YZ=             -1.5717

 Normal termination of Gaussian 16 at Tue Jan 19 15:19:07 2021.
