 Gaussian 16, Revision A.03,
 Gaussian 16:  EM64L-G16RevA.03 25-Dec-2016

 ----------------------------------------------------------------------
 #P LC-wHPBE/TZVP iop(3/107=0179800000, 3/108=0179800000) scf=(conver=6
 ,fermi,ndamp=35,noincfock,novaracc,vshift=500,xqc)
 ----------------------------------------------------------------------

 -------------
 H19 C24 S2 N1
 -------------
 Symbolic Z-matrix:
 Charge =  0 Multiplicity = 1

                         Standard orientation:
 ---------------------------------------------------------------------
 Center     Atomic      Atomic             Coordinates (Angstroms)
 Number     Number       Type             X           Y           Z
 ---------------------------------------------------------------------
      1          6           0       -3.352046    1.022081    0.901490
      2          6           0       -4.015603    0.124147    0.077833
      3         16           0       -3.193622   -0.833868   -1.176213
      4          6           0       -5.398593   -0.028228    0.207342
      5          6           0       -0.749106    0.373785   -1.531691
      6          6           0       -1.475477   -0.566990   -0.815552
      7          6           0       -4.041516    1.761821    1.844012
      8          6           0       -6.080951    0.720801    1.156415
      9          1           0       -7.475944   -0.835079   -0.458792
     10          6           0        0.601771    0.547170   -1.299188
     11          6           0       -0.823428   -1.336346    0.139234
     12          6           0        0.521569   -1.154920    0.389409
     13          6           0        1.255724   -0.212476   -0.331046
     14          1           0        1.160253    1.275483   -1.876291
     15          1           0       -1.383265   -2.076857    0.700814
     16          1           0        1.015474   -1.752114    1.147605
     17          6           0       -5.411167    1.613701    1.970885
     18          1           0       -2.279577    1.141824    0.800598
     19          1           0       -1.248138    0.967582   -2.290346
     20          1           0       -3.503227    2.458074    2.478369
     21          1           0       -7.154267    0.598627    1.263844
     22          1           0       -5.962434    2.189124    2.706912
     23         16           0       -6.238224   -1.192989   -0.835805
     24          7           0        2.627173   -0.037586   -0.087724
     25          6           0        3.438312   -1.140752    0.276409
     26          6           0        4.374889   -1.012928    1.295896
     27          6           0        3.317625   -2.356550   -0.387733
     28          6           0        5.179400   -2.084309    1.640010
     29          6           0        4.112866   -3.428755   -0.025756
     30          6           0        5.049979   -3.298472    0.986151
     31          1           0        4.470709   -0.064848    1.814448
     32          1           0        2.593785   -2.456724   -1.189607
     33          1           0        5.907450   -1.970366    2.436839
     34          1           0        4.006805   -4.372570   -0.551042
     35          1           0        5.677330   -4.139106    1.262850
     36          6           0        3.224517    1.239724   -0.221989
     37          6           0        4.446224    1.376745   -0.871250
     38          6           0        2.604731    2.367846    0.304633
     39          6           0        5.037460    2.622109   -0.986244
     40          6           0        3.193018    3.612223    0.169883
     41          6           0        4.413292    3.746533   -0.472133
     42          1           0        4.931907    0.498005   -1.282066
     43          1           0        1.656156    2.262505    0.820378
     44          1           0        5.992055    2.714270   -1.494403
     45          1           0        2.697309    4.484427    0.584059
     46          1           0        4.876004    4.722810   -0.569917
 ---------------------------------------------------------------------

 SCF Done:  E(RLC-wHPBE) =  -1776.20951533     A.U. after   15 cycles

 The electronic state is 1-A.
 Alpha  occ. eigenvalues --  -88.19367 -88.19282 -14.12890 -10.04073 -10.03521
 Alpha  occ. eigenvalues --  -10.03485 -10.02858 -10.02482 -10.01956  -9.99909
 Alpha  occ. eigenvalues --   -9.99884  -9.99516  -9.99485  -9.99458  -9.99455
 Alpha  occ. eigenvalues --   -9.99418  -9.99415  -9.99333  -9.99271  -9.99271
 Alpha  occ. eigenvalues --   -9.99265  -9.99250  -9.99078  -9.99042  -9.98836
 Alpha  occ. eigenvalues --   -9.98641  -9.98571  -7.78652  -7.78439  -5.80872
 Alpha  occ. eigenvalues --   -5.80686  -5.80389  -5.80178  -5.79634  -5.79419
 Alpha  occ. eigenvalues --   -1.00621  -0.91304  -0.90278  -0.89989  -0.88344
 Alpha  occ. eigenvalues --   -0.83784  -0.82634  -0.80576  -0.80004  -0.79128
 Alpha  occ. eigenvalues --   -0.78913  -0.78858  -0.76510  -0.74768  -0.72650
 Alpha  occ. eigenvalues --   -0.68257  -0.67663  -0.65866  -0.65675  -0.65271
 Alpha  occ. eigenvalues --   -0.64569  -0.62735  -0.62000  -0.59518  -0.59482
 Alpha  occ. eigenvalues --   -0.56762  -0.55230  -0.53908  -0.52859  -0.52689
 Alpha  occ. eigenvalues --   -0.52031  -0.51119  -0.50827  -0.49854  -0.49548
 Alpha  occ. eigenvalues --   -0.48911  -0.48671  -0.48173  -0.47906  -0.47743
 Alpha  occ. eigenvalues --   -0.47251  -0.46312  -0.45244  -0.44489  -0.44238
 Alpha  occ. eigenvalues --   -0.44089  -0.42870  -0.42078  -0.41500  -0.41072
 Alpha  occ. eigenvalues --   -0.40451  -0.39981  -0.39889  -0.39779  -0.38155
 Alpha  occ. eigenvalues --   -0.36700  -0.36080  -0.34861  -0.33439  -0.33413
 Alpha  occ. eigenvalues --   -0.33068  -0.32292  -0.32041  -0.28730  -0.26519
 Alpha  occ. eigenvalues --   -0.25296
 Alpha virt. eigenvalues --    0.01027   0.01491   0.02105   0.03358   0.03852
 Alpha virt. eigenvalues --    0.04062   0.04447   0.05253   0.06622   0.09035
 Alpha virt. eigenvalues --    0.10120   0.10463   0.10651   0.11714   0.12733

 Mulliken charges:
               1
     1  C    0.026217
     2  C   -0.171933
     3  S    0.023398
     4  C   -0.127986
     5  C   -0.062879
     6  C   -0.193905
     7  C   -0.145054
     8  C   -0.030560
     9  H    0.096092
    10  C   -0.114856
    11  C   -0.044966
    12  C   -0.121808
    13  C    0.003079
    14  H    0.155511
    15  H    0.120729
    16  H    0.157770
    17  C   -0.117551
    18  H    0.159500
    19  H    0.114353
    20  H    0.100008
    21  H    0.104507
    22  H    0.100758
    23  S   -0.052668
    24  N   -0.000591
    25  C   -0.097128
    26  C   -0.086614
    27  C   -0.099387
    28  C   -0.109983
    29  C   -0.110078
    30  C   -0.095118
    31  H    0.141524
    32  H    0.150125
    33  H    0.106010
    34  H    0.106991
    35  H    0.105832
    36  C   -0.105120
    37  C   -0.080798
    38  C   -0.095089
    39  C   -0.111321
    40  C   -0.115126
    41  C   -0.092785
    42  H    0.142552
    43  H    0.151124
    44  H    0.106154
    45  H    0.105423
    46  H    0.105647
 Sum of Mulliken charges =  -0.00000

 Dipole moment (field-independent basis, Debye):
    X=              2.2695    Y=              1.2354    Z=              1.4537  Tot=              2.9648
 Quadrupole moment (field-independent basis, Debye-Ang):
   XX=           -154.3084   YY=           -163.0952   ZZ=           -171.7311
   XY=             -5.4561   XZ=             -6.7112   YZ=              1.2014

 Normal termination of Gaussian 16 at Tue Jan 19 01:37:11 2021.
