 Gaussian 16, Revision A.03,
 Gaussian 16:  EM64L-G16RevA.03 25-Dec-2016

 ----------------------------------------------------------------------
 #P LC-wHPBE/TZVP iop(3/107=0328100000, 3/108=0328100000) scf=(conver=6
 ,fermi,ndamp=35,noincfock,novaracc,vshift=500,xqc)
 ----------------------------------------------------------------------

 -------------
 H19 C24 S2 N1
 -------------
 Symbolic Z-matrix:
 Charge =  1 Multiplicity = 2

                         Standard orientation:
 ---------------------------------------------------------------------
 Center     Atomic      Atomic             Coordinates (Angstroms)
 Number     Number       Type             X           Y           Z
 ---------------------------------------------------------------------
      1          6           0       -3.352046    1.022081    0.901490
      2          6           0       -4.015603    0.124147    0.077833
      3         16           0       -3.193622   -0.833868   -1.176213
      4          6           0       -5.398593   -0.028228    0.207342
      5          6           0       -0.749106    0.373785   -1.531691
      6          6           0       -1.475477   -0.566990   -0.815552
      7          6           0       -4.041516    1.761821    1.844012
      8          6           0       -6.080951    0.720801    1.156415
      9          1           0       -7.475944   -0.835079   -0.458792
     10          6           0        0.601771    0.547170   -1.299188
     11          6           0       -0.823428   -1.336346    0.139234
     12          6           0        0.521569   -1.154920    0.389409
     13          6           0        1.255724   -0.212476   -0.331046
     14          1           0        1.160253    1.275483   -1.876291
     15          1           0       -1.383265   -2.076857    0.700814
     16          1           0        1.015474   -1.752114    1.147605
     17          6           0       -5.411167    1.613701    1.970885
     18          1           0       -2.279577    1.141824    0.800598
     19          1           0       -1.248138    0.967582   -2.290346
     20          1           0       -3.503227    2.458074    2.478369
     21          1           0       -7.154267    0.598627    1.263844
     22          1           0       -5.962434    2.189124    2.706912
     23         16           0       -6.238224   -1.192989   -0.835805
     24          7           0        2.627173   -0.037586   -0.087724
     25          6           0        3.438312   -1.140752    0.276409
     26          6           0        4.374889   -1.012928    1.295896
     27          6           0        3.317625   -2.356550   -0.387733
     28          6           0        5.179400   -2.084309    1.640010
     29          6           0        4.112866   -3.428755   -0.025756
     30          6           0        5.049979   -3.298472    0.986151
     31          1           0        4.470709   -0.064848    1.814448
     32          1           0        2.593785   -2.456724   -1.189607
     33          1           0        5.907450   -1.970366    2.436839
     34          1           0        4.006805   -4.372570   -0.551042
     35          1           0        5.677330   -4.139106    1.262850
     36          6           0        3.224517    1.239724   -0.221989
     37          6           0        4.446224    1.376745   -0.871250
     38          6           0        2.604731    2.367846    0.304633
     39          6           0        5.037460    2.622109   -0.986244
     40          6           0        3.193018    3.612223    0.169883
     41          6           0        4.413292    3.746533   -0.472133
     42          1           0        4.931907    0.498005   -1.282066
     43          1           0        1.656156    2.262505    0.820378
     44          1           0        5.992055    2.714270   -1.494403
     45          1           0        2.697309    4.484427    0.584059
     46          1           0        4.876004    4.722810   -0.569917
 ---------------------------------------------------------------------

 SCF Done:  E(ULC-wHPBE) =  -1776.11508746     A.U. after   33 cycles
 SCF Done:  E(ULC-wHPBE) =  -1776.13531447     a.u. after   15 cycles

 The electronic state is 2-A.
 Alpha  occ. eigenvalues --  -88.37788 -88.35060 -14.42643 -10.27538 -10.26775
 Alpha  occ. eigenvalues --  -10.26736 -10.24386 -10.22684 -10.22603 -10.22229
 Alpha  occ. eigenvalues --  -10.22153 -10.22138 -10.22107 -10.21227 -10.21210
 Alpha  occ. eigenvalues --  -10.21165 -10.21116 -10.20802 -10.20763 -10.20726
 Alpha  occ. eigenvalues --  -10.20722 -10.20177 -10.19752 -10.16278 -10.15679
 Alpha  occ. eigenvalues --  -10.15310 -10.15155  -7.97160  -7.94552  -5.99173
 Alpha  occ. eigenvalues --   -5.98608  -5.97759  -5.96510  -5.95986  -5.95200
 Alpha  occ. eigenvalues --   -1.27360  -1.13549  -1.12829  -1.11008  -1.08372
 Alpha  occ. eigenvalues --   -1.04545  -1.02997  -1.01002  -1.00948  -1.00592
 Alpha  occ. eigenvalues --   -0.99778  -0.98946  -0.96741  -0.92472  -0.90116
 Alpha  occ. eigenvalues --   -0.89821  -0.87834  -0.86954  -0.86012  -0.85476
 Alpha  occ. eigenvalues --   -0.82732  -0.81027  -0.80159  -0.79972  -0.77970
 Alpha  occ. eigenvalues --   -0.75127  -0.74325  -0.73669  -0.72425  -0.70728
 Alpha  occ. eigenvalues --   -0.70378  -0.69763  -0.68305  -0.68165  -0.67757
 Alpha  occ. eigenvalues --   -0.67439  -0.66979  -0.66669  -0.66640  -0.65354
 Alpha  occ. eigenvalues --   -0.64378  -0.63863  -0.63750  -0.61742  -0.60576
 Alpha  occ. eigenvalues --   -0.60412  -0.60027  -0.59815  -0.59596  -0.58379
 Alpha  occ. eigenvalues --   -0.58187  -0.57259  -0.56412  -0.55216  -0.53335
 Alpha  occ. eigenvalues --   -0.51532  -0.50981  -0.50754  -0.49709  -0.49445
 Alpha  occ. eigenvalues --   -0.49181  -0.48608  -0.47902  -0.44981  -0.41103
 Alpha  occ. eigenvalues --   -0.38529
 Alpha virt. eigenvalues --   -0.10150  -0.09345  -0.09023  -0.06813  -0.06502
 Alpha virt. eigenvalues --   -0.05052  -0.02311  -0.01858  -0.00305   0.00115
 Alpha virt. eigenvalues --    0.01882   0.02371   0.02873   0.03741   0.04441

  Beta  occ. eigenvalues --  -88.37788 -88.35060 -14.41636 -10.27663 -10.26879
  Beta  occ. eigenvalues --  -10.26839 -10.24113 -10.22455 -10.22383 -10.22051
  Beta  occ. eigenvalues --  -10.21974 -10.21962 -10.21931 -10.21365 -10.21348
  Beta  occ. eigenvalues --  -10.20982 -10.20931 -10.20900 -10.20860 -10.20827
  Beta  occ. eigenvalues --  -10.20817 -10.20149 -10.19752 -10.16276 -10.15679
  Beta  occ. eigenvalues --  -10.15310 -10.15154  -7.97160  -7.94551  -5.99180
  Beta  occ. eigenvalues --   -5.98607  -5.97754  -5.96510  -5.95986  -5.95200
  Beta  occ. eigenvalues --   -1.26059  -1.13282  -1.12609  -1.10654  -1.08306
  Beta  occ. eigenvalues --   -1.04260  -1.02783  -1.00830  -1.00774  -1.00426
  Beta  occ. eigenvalues --   -0.99653  -0.98829  -0.96239  -0.92368  -0.90041
  Beta  occ. eigenvalues --   -0.89530  -0.87626  -0.86594  -0.85836  -0.85293
  Beta  occ. eigenvalues --   -0.82568  -0.80977  -0.79986  -0.79801  -0.77913
  Beta  occ. eigenvalues --   -0.74899  -0.73587  -0.72876  -0.72258  -0.70568
  Beta  occ. eigenvalues --   -0.70275  -0.69629  -0.68231  -0.67958  -0.67587
  Beta  occ. eigenvalues --   -0.67296  -0.66815  -0.66612  -0.66542  -0.64679
  Beta  occ. eigenvalues --   -0.63839  -0.63408  -0.63144  -0.60966  -0.60546
  Beta  occ. eigenvalues --   -0.60161  -0.59866  -0.59601  -0.58962  -0.58201
  Beta  occ. eigenvalues --   -0.58068  -0.56369  -0.55987  -0.54393  -0.53221
  Beta  occ. eigenvalues --   -0.50604  -0.50244  -0.49741  -0.49463  -0.48905
  Beta  occ. eigenvalues --   -0.48601  -0.47880  -0.47506  -0.41085  -0.38510
  Beta virt. eigenvalues --   -0.23939  -0.09305  -0.08933  -0.08443  -0.06068
  Beta virt. eigenvalues --   -0.05907  -0.03359  -0.02286  -0.01841  -0.00173
  Beta virt. eigenvalues --    0.00228   0.01971   0.02470   0.02923   0.03799

 Mulliken charges and spin densities:
               1          2
     1  C    0.005857   0.003511
     2  C   -0.157421   0.009894
     3  S    0.100571  -0.003506
     4  C   -0.147582   0.000384
     5  C   -0.053997  -0.137789
     6  C   -0.256655   0.222590
     7  C   -0.160264  -0.000210
     8  C   -0.043227  -0.000182
     9  H    0.114220   0.000117
    10  C   -0.093332   0.179563
    11  C   -0.032329  -0.135798
    12  C   -0.103293   0.172200
    13  C   -0.035789  -0.080215
    14  H    0.214472  -0.007000
    15  H    0.182988   0.005793
    16  H    0.216249  -0.006569
    17  C   -0.132518   0.000538
    18  H    0.149075  -0.000353
    19  H    0.178086   0.006028
    20  H    0.132478   0.000219
    21  H    0.146475   0.000045
    22  H    0.143797  -0.000007
    23  S   -0.029238   0.000686
    24  N    0.088011   0.455976
    25  C   -0.129088  -0.065021
    26  C   -0.079166   0.132722
    27  C   -0.093063   0.133341
    28  C   -0.123000  -0.099924
    29  C   -0.122734  -0.101328
    30  C   -0.078418   0.167220
    31  H    0.197272  -0.005426
    32  H    0.206819  -0.005371
    33  H    0.168445   0.004564
    34  H    0.168925   0.004618
    35  H    0.172029  -0.007821
    36  C   -0.136947  -0.066051
    37  C   -0.073699   0.132616
    38  C   -0.089538   0.133455
    39  C   -0.124063  -0.099889
    40  C   -0.127319  -0.101421
    41  C   -0.076559   0.166908
    42  H    0.198279  -0.005450
    43  H    0.207599  -0.005023
    44  H    0.168689   0.004596
    45  H    0.167102   0.004582
    46  H    0.171800  -0.007812
 Sum of Mulliken charges =   1.00000   1.00000

 Dipole moment (field-independent basis, Debye):
    X=             11.0922    Y=              1.3437    Z=              1.4686  Tot=             11.2694
 Quadrupole moment (field-independent basis, Debye-Ang):
   XX=            -70.5289   YY=           -129.4384   ZZ=           -159.9414
   XY=             -6.4188   XZ=             -5.8425   YZ=             -1.6996

 Normal termination of Gaussian 16 at Mon Jan 18 16:04:02 2021.
