 Gaussian 16, Revision A.03,
 Gaussian 16:  EM64L-G16RevA.03 25-Dec-2016

 ----------------------------------------------------------------------
 #P LC-wHPBE/TZVP iop(3/107=0184100000, 3/108=0184100000) scf=(conver=6
 ,fermi,ndamp=35,noincfock,novaracc,vshift=500,xqc)
 ----------------------------------------------------------------------

 -------------
 H19 C24 S2 N1
 -------------
 Symbolic Z-matrix:
 Charge =  1 Multiplicity = 2

                         Standard orientation:
 ---------------------------------------------------------------------
 Center     Atomic      Atomic             Coordinates (Angstroms)
 Number     Number       Type             X           Y           Z
 ---------------------------------------------------------------------
      1          6           0       -3.352046    1.022081    0.901490
      2          6           0       -4.015603    0.124147    0.077833
      3         16           0       -3.193622   -0.833868   -1.176213
      4          6           0       -5.398593   -0.028228    0.207342
      5          6           0       -0.749106    0.373785   -1.531691
      6          6           0       -1.475477   -0.566990   -0.815552
      7          6           0       -4.041516    1.761821    1.844012
      8          6           0       -6.080951    0.720801    1.156415
      9          1           0       -7.475944   -0.835079   -0.458792
     10          6           0        0.601771    0.547170   -1.299188
     11          6           0       -0.823428   -1.336346    0.139234
     12          6           0        0.521569   -1.154920    0.389409
     13          6           0        1.255724   -0.212476   -0.331046
     14          1           0        1.160253    1.275483   -1.876291
     15          1           0       -1.383265   -2.076857    0.700814
     16          1           0        1.015474   -1.752114    1.147605
     17          6           0       -5.411167    1.613701    1.970885
     18          1           0       -2.279577    1.141824    0.800598
     19          1           0       -1.248138    0.967582   -2.290346
     20          1           0       -3.503227    2.458074    2.478369
     21          1           0       -7.154267    0.598627    1.263844
     22          1           0       -5.962434    2.189124    2.706912
     23         16           0       -6.238224   -1.192989   -0.835805
     24          7           0        2.627173   -0.037586   -0.087724
     25          6           0        3.438312   -1.140752    0.276409
     26          6           0        4.374889   -1.012928    1.295896
     27          6           0        3.317625   -2.356550   -0.387733
     28          6           0        5.179400   -2.084309    1.640010
     29          6           0        4.112866   -3.428755   -0.025756
     30          6           0        5.049979   -3.298472    0.986151
     31          1           0        4.470709   -0.064848    1.814448
     32          1           0        2.593785   -2.456724   -1.189607
     33          1           0        5.907450   -1.970366    2.436839
     34          1           0        4.006805   -4.372570   -0.551042
     35          1           0        5.677330   -4.139106    1.262850
     36          6           0        3.224517    1.239724   -0.221989
     37          6           0        4.446224    1.376745   -0.871250
     38          6           0        2.604731    2.367846    0.304633
     39          6           0        5.037460    2.622109   -0.986244
     40          6           0        3.193018    3.612223    0.169883
     41          6           0        4.413292    3.746533   -0.472133
     42          1           0        4.931907    0.498005   -1.282066
     43          1           0        1.656156    2.262505    0.820378
     44          1           0        5.992055    2.714270   -1.494403
     45          1           0        2.697309    4.484427    0.584059
     46          1           0        4.876004    4.722810   -0.569917
 ---------------------------------------------------------------------

 SCF Done:  E(ULC-wHPBE) =  -1775.94853134     A.U. after   33 cycles
 SCF Done:  E(ULC-wHPBE) =  -1775.96259186     a.u. after   61 cycles

 The electronic state is 2-A.
 Alpha  occ. eigenvalues --  -88.30166 -88.27485 -14.33474 -10.19091 -10.18357
 Alpha  occ. eigenvalues --  -10.18318 -10.16083 -10.14303 -10.14184 -10.13823
 Alpha  occ. eigenvalues --  -10.13749 -10.13733 -10.13703 -10.13113 -10.13100
 Alpha  occ. eigenvalues --  -10.12867 -10.12819 -10.12632 -10.12595 -10.12561
 Alpha  occ. eigenvalues --  -10.12555 -10.12041 -10.11643 -10.08192 -10.07622
 Alpha  occ. eigenvalues --  -10.07218 -10.07082  -7.89326  -7.86774  -5.91590
 Alpha  occ. eigenvalues --   -5.91069  -5.90272  -5.88991  -5.88505  -5.87753
 Alpha  occ. eigenvalues --   -1.18229  -1.04930  -1.04204  -1.02505  -0.99979
 Alpha  occ. eigenvalues --   -0.96447  -0.94943  -0.93042  -0.93014  -0.92636
 Alpha  occ. eigenvalues --   -0.91918  -0.91122  -0.89072  -0.85128  -0.82940
 Alpha  occ. eigenvalues --   -0.82703  -0.80841  -0.79897  -0.79101  -0.78604
 Alpha  occ. eigenvalues --   -0.76086  -0.74413  -0.73727  -0.73520  -0.71595
 Alpha  occ. eigenvalues --   -0.68907  -0.67950  -0.67519  -0.66577  -0.64926
 Alpha  occ. eigenvalues --   -0.64596  -0.63962  -0.62606  -0.62458  -0.62166
 Alpha  occ. eigenvalues --   -0.61759  -0.61346  -0.61112  -0.61038  -0.59628
 Alpha  occ. eigenvalues --   -0.58713  -0.58405  -0.58159  -0.56506  -0.55651
 Alpha  occ. eigenvalues --   -0.55262  -0.54882  -0.54719  -0.54098  -0.53456
 Alpha  occ. eigenvalues --   -0.53254  -0.52361  -0.51735  -0.50701  -0.48763
 Alpha  occ. eigenvalues --   -0.47591  -0.47310  -0.47109  -0.45927  -0.45799
 Alpha  occ. eigenvalues --   -0.45414  -0.44751  -0.43841  -0.41341  -0.37772
 Alpha  occ. eigenvalues --   -0.35398
 Alpha virt. eigenvalues --   -0.12328  -0.11576  -0.11291  -0.09333  -0.09007
 Alpha virt. eigenvalues --   -0.07547  -0.04798  -0.04381  -0.03239  -0.02207
 Alpha virt. eigenvalues --   -0.00481  -0.00191   0.00490   0.01444   0.01889

  Beta  occ. eigenvalues --  -88.30158 -88.27484 -14.32631 -10.19137 -10.18397
  Beta  occ. eigenvalues --  -10.18357 -10.15875 -10.14136 -10.14031 -10.13693
  Beta  occ. eigenvalues --  -10.13618 -10.13605 -10.13575 -10.13184 -10.13169
  Beta  occ. eigenvalues --  -10.12730 -10.12680 -10.12679 -10.12642 -10.12613
  Beta  occ. eigenvalues --  -10.12599 -10.12014 -10.11638 -10.08187 -10.07623
  Beta  occ. eigenvalues --  -10.07219 -10.07077  -7.89318  -7.86773  -5.91589
  Beta  occ. eigenvalues --   -5.91060  -5.90251  -5.88990  -5.88504  -5.87750
  Beta  occ. eigenvalues --   -1.17145  -1.04694  -1.04005  -1.02227  -0.99919
  Beta  occ. eigenvalues --   -0.96207  -0.94741  -0.92886  -0.92863  -0.92490
  Beta  occ. eigenvalues --   -0.91791  -0.91043  -0.88723  -0.85026  -0.82873
  Beta  occ. eigenvalues --   -0.82459  -0.80667  -0.79625  -0.78939  -0.78450
  Beta  occ. eigenvalues --   -0.75931  -0.74372  -0.73561  -0.73359  -0.71547
  Beta  occ. eigenvalues --   -0.68740  -0.67565  -0.66931  -0.66455  -0.64777
  Beta  occ. eigenvalues --   -0.64501  -0.63858  -0.62532  -0.62309  -0.62033
  Beta  occ. eigenvalues --   -0.61651  -0.61233  -0.61071  -0.60968  -0.59171
  Beta  occ. eigenvalues --   -0.58461  -0.58031  -0.57747  -0.56088  -0.55609
  Beta  occ. eigenvalues --   -0.55102  -0.54694  -0.54338  -0.53942  -0.53315
  Beta  occ. eigenvalues --   -0.53151  -0.51781  -0.51560  -0.50188  -0.48685
  Beta  occ. eigenvalues --   -0.46851  -0.46742  -0.46364  -0.45573  -0.45343
  Beta  occ. eigenvalues --   -0.45109  -0.44178  -0.43802  -0.37691  -0.35286
  Beta virt. eigenvalues --   -0.25240  -0.11602  -0.11234  -0.10760  -0.08839
  Beta virt. eigenvalues --   -0.08609  -0.06492  -0.04753  -0.04344  -0.03113
  Beta virt. eigenvalues --   -0.02118  -0.00398  -0.00107   0.00553   0.01499

 Mulliken charges and spin densities:
               1          2
     1  C    0.032771   0.005008
     2  C   -0.158187   0.009058
     3  S    0.081853   0.013104
     4  C   -0.127721   0.003500
     5  C   -0.041396  -0.072369
     6  C   -0.215824   0.160478
     7  C   -0.143809  -0.001136
     8  C   -0.025987  -0.001899
     9  H    0.116114   0.000111
    10  C   -0.086044   0.122923
    11  C   -0.021986  -0.069312
    12  C   -0.095371   0.110980
    13  C   -0.014494  -0.015996
    14  H    0.189183  -0.005132
    15  H    0.160849   0.003053
    16  H    0.190990  -0.004447
    17  C   -0.111610   0.004256
    18  H    0.130527  -0.000455
    19  H    0.156212   0.003181
    20  H    0.112324   0.000332
    21  H    0.125955   0.000085
    22  H    0.124161  -0.000205
    23  S   -0.032776   0.003317
    24  N    0.098228   0.378196
    25  C   -0.115845  -0.013109
    26  C   -0.065027   0.089875
    27  C   -0.080558   0.090743
    28  C   -0.104119  -0.051653
    29  C   -0.104022  -0.052755
    30  C   -0.060993   0.122402
    31  H    0.173466  -0.003868
    32  H    0.182650  -0.003869
    33  H    0.149877   0.002715
    34  H    0.150303   0.002757
    35  H    0.153527  -0.006098
    36  C   -0.124638  -0.013785
    37  C   -0.059160   0.089581
    38  C   -0.076809   0.090894
    39  C   -0.105274  -0.051516
    40  C   -0.109124  -0.053040
    41  C   -0.058750   0.122202
    42  H    0.174399  -0.003890
    43  H    0.184359  -0.003580
    44  H    0.150114   0.002743
    45  H    0.148369   0.002714
    46  H    0.153297  -0.006091
 Sum of Mulliken charges =   1.00000   1.00000

 Dipole moment (field-independent basis, Debye):
    X=             10.5332    Y=              1.1909    Z=              1.3246  Tot=             10.6827
 Quadrupole moment (field-independent basis, Debye-Ang):
   XX=            -70.0893   YY=           -130.1752   ZZ=           -160.3838
   XY=             -5.6027   XZ=             -5.1157   YZ=             -1.5869

 Normal termination of Gaussian 16 at Mon Jan 18 23:53:00 2021.
