 Gaussian 16, Revision A.03,
 Gaussian 16:  EM64L-G16RevA.03 25-Dec-2016

 ----------------------------------------------------------------------
 #P LC-wHPBE/TZVP iop(3/107=0181000000, 3/108=0181000000) scf=(conver=6
 ,fermi,ndamp=35,noincfock,novaracc,vshift=500,xqc)
 ----------------------------------------------------------------------

 -------------
 H19 C24 S2 N1
 -------------
 Symbolic Z-matrix:
 Charge =  1 Multiplicity = 2

                         Standard orientation:
 ---------------------------------------------------------------------
 Center     Atomic      Atomic             Coordinates (Angstroms)
 Number     Number       Type             X           Y           Z
 ---------------------------------------------------------------------
      1          6           0       -3.352046    1.022081    0.901490
      2          6           0       -4.015603    0.124147    0.077833
      3         16           0       -3.193622   -0.833868   -1.176213
      4          6           0       -5.398593   -0.028228    0.207342
      5          6           0       -0.749106    0.373785   -1.531691
      6          6           0       -1.475477   -0.566990   -0.815552
      7          6           0       -4.041516    1.761821    1.844012
      8          6           0       -6.080951    0.720801    1.156415
      9          1           0       -7.475944   -0.835079   -0.458792
     10          6           0        0.601771    0.547170   -1.299188
     11          6           0       -0.823428   -1.336346    0.139234
     12          6           0        0.521569   -1.154920    0.389409
     13          6           0        1.255724   -0.212476   -0.331046
     14          1           0        1.160253    1.275483   -1.876291
     15          1           0       -1.383265   -2.076857    0.700814
     16          1           0        1.015474   -1.752114    1.147605
     17          6           0       -5.411167    1.613701    1.970885
     18          1           0       -2.279577    1.141824    0.800598
     19          1           0       -1.248138    0.967582   -2.290346
     20          1           0       -3.503227    2.458074    2.478369
     21          1           0       -7.154267    0.598627    1.263844
     22          1           0       -5.962434    2.189124    2.706912
     23         16           0       -6.238224   -1.192989   -0.835805
     24          7           0        2.627173   -0.037586   -0.087724
     25          6           0        3.438312   -1.140752    0.276409
     26          6           0        4.374889   -1.012928    1.295896
     27          6           0        3.317625   -2.356550   -0.387733
     28          6           0        5.179400   -2.084309    1.640010
     29          6           0        4.112866   -3.428755   -0.025756
     30          6           0        5.049979   -3.298472    0.986151
     31          1           0        4.470709   -0.064848    1.814448
     32          1           0        2.593785   -2.456724   -1.189607
     33          1           0        5.907450   -1.970366    2.436839
     34          1           0        4.006805   -4.372570   -0.551042
     35          1           0        5.677330   -4.139106    1.262850
     36          6           0        3.224517    1.239724   -0.221989
     37          6           0        4.446224    1.376745   -0.871250
     38          6           0        2.604731    2.367846    0.304633
     39          6           0        5.037460    2.622109   -0.986244
     40          6           0        3.193018    3.612223    0.169883
     41          6           0        4.413292    3.746533   -0.472133
     42          1           0        4.931907    0.498005   -1.282066
     43          1           0        1.656156    2.262505    0.820378
     44          1           0        5.992055    2.714270   -1.494403
     45          1           0        2.697309    4.484427    0.584059
     46          1           0        4.876004    4.722810   -0.569917
 ---------------------------------------------------------------------

 SCF Done:  E(ULC-wHPBE) =  -1775.94421250     A.U. after   33 cycles
 SCF Done:  E(ULC-wHPBE) =  -1775.95811855     a.u. after   59 cycles

 The electronic state is 2-A.
 Alpha  occ. eigenvalues --  -88.30025 -88.27342 -14.33251 -10.18903 -10.18162
 Alpha  occ. eigenvalues --  -10.18123 -10.15905 -10.14117 -10.13994 -10.13629
 Alpha  occ. eigenvalues --  -10.13554 -10.13537 -10.13508 -10.12938 -10.12924
 Alpha  occ. eigenvalues --  -10.12676 -10.12628 -10.12444 -10.12408 -10.12373
 Alpha  occ. eigenvalues --  -10.12367 -10.11883 -10.11486 -10.08033 -10.07463
 Alpha  occ. eigenvalues --  -10.07058 -10.06924  -7.89181  -7.86627  -5.91447
 Alpha  occ. eigenvalues --   -5.90928  -5.90134  -5.88847  -5.88362  -5.87611
 Alpha  occ. eigenvalues --   -1.18011  -1.04735  -1.04000  -1.02306  -0.99809
 Alpha  occ. eigenvalues --   -0.96263  -0.94747  -0.92854  -0.92825  -0.92442
 Alpha  occ. eigenvalues --   -0.91738  -0.90956  -0.88895  -0.84963  -0.82782
 Alpha  occ. eigenvalues --   -0.82521  -0.80673  -0.79718  -0.78925  -0.78430
 Alpha  occ. eigenvalues --   -0.75916  -0.74264  -0.73559  -0.73346  -0.71451
 Alpha  occ. eigenvalues --   -0.68741  -0.67782  -0.67350  -0.66434  -0.64770
 Alpha  occ. eigenvalues --   -0.64441  -0.63816  -0.62452  -0.62301  -0.62022
 Alpha  occ. eigenvalues --   -0.61608  -0.61195  -0.60981  -0.60883  -0.59474
 Alpha  occ. eigenvalues --   -0.58566  -0.58266  -0.57995  -0.56370  -0.55535
 Alpha  occ. eigenvalues --   -0.55120  -0.54744  -0.54576  -0.53963  -0.53322
 Alpha  occ. eigenvalues --   -0.53114  -0.52224  -0.51623  -0.50587  -0.48655
 Alpha  occ. eigenvalues --   -0.47482  -0.47188  -0.46992  -0.45812  -0.45688
 Alpha  occ. eigenvalues --   -0.45306  -0.44651  -0.43741  -0.41227  -0.37691
 Alpha  occ. eigenvalues --   -0.35323
 Alpha virt. eigenvalues --   -0.12398  -0.11644  -0.11359  -0.09412  -0.09080
 Alpha virt. eigenvalues --   -0.07622  -0.04897  -0.04481  -0.03345  -0.02280
 Alpha virt. eigenvalues --   -0.00555  -0.00276   0.00413   0.01368   0.01797

  Beta  occ. eigenvalues --  -88.30017 -88.27340 -14.32413 -10.18947 -10.18201
  Beta  occ. eigenvalues --  -10.18160 -10.15698 -10.13951 -10.13843 -10.13499
  Beta  occ. eigenvalues --  -10.13424 -10.13410 -10.13380 -10.13008 -10.12992
  Beta  occ. eigenvalues --  -10.12541 -10.12490 -10.12490 -10.12453 -10.12424
  Beta  occ. eigenvalues --  -10.12410 -10.11856 -10.11481 -10.08028 -10.07464
  Beta  occ. eigenvalues --  -10.07059 -10.06919  -7.89173  -7.86626  -5.91447
  Beta  occ. eigenvalues --   -5.90919  -5.90112  -5.88846  -5.88360  -5.87608
  Beta  occ. eigenvalues --   -1.16933  -1.04499  -1.03802  -1.02030  -0.99748
  Beta  occ. eigenvalues --   -0.96024  -0.94546  -0.92698  -0.92676  -0.92296
  Beta  occ. eigenvalues --   -0.91614  -0.90876  -0.88548  -0.84861  -0.82715
  Beta  occ. eigenvalues --   -0.82278  -0.80498  -0.79449  -0.78763  -0.78277
  Beta  occ. eigenvalues --   -0.75762  -0.74223  -0.73393  -0.73186  -0.71403
  Beta  occ. eigenvalues --   -0.68575  -0.67404  -0.66768  -0.66312  -0.64621
  Beta  occ. eigenvalues --   -0.64346  -0.63711  -0.62378  -0.62153  -0.61889
  Beta  occ. eigenvalues --   -0.61501  -0.61083  -0.60939  -0.60814  -0.59024
  Beta  occ. eigenvalues --   -0.58328  -0.57878  -0.57587  -0.55964  -0.55494
  Beta  occ. eigenvalues --   -0.54960  -0.54555  -0.54202  -0.53807  -0.53180
  Beta  occ. eigenvalues --   -0.53011  -0.51667  -0.51442  -0.50077  -0.48578
  Beta  occ. eigenvalues --   -0.46752  -0.46630  -0.46253  -0.45463  -0.45237
  Beta  occ. eigenvalues --   -0.45000  -0.44084  -0.43699  -0.37604  -0.35199
  Beta virt. eigenvalues --   -0.25281  -0.11677  -0.11306  -0.10829  -0.08924
  Beta virt. eigenvalues --   -0.08687  -0.06584  -0.04849  -0.04442  -0.03218
  Beta virt. eigenvalues --   -0.02191  -0.00473  -0.00193   0.00476   0.01423

 Mulliken charges and spin densities:
               1          2
     1  C    0.033328   0.005164
     2  C   -0.158336   0.009149
     3  S    0.081735   0.014461
     4  C   -0.127407   0.003814
     5  C   -0.041113  -0.071286
     6  C   -0.215068   0.159362
     7  C   -0.143476  -0.001192
     8  C   -0.025557  -0.002085
     9  H    0.116248   0.000104
    10  C   -0.086046   0.121948
    11  C   -0.021716  -0.068120
    12  C   -0.095409   0.109589
    13  C   -0.014141  -0.014816
    14  H    0.188779  -0.005100
    15  H    0.160486   0.003003
    16  H    0.190577  -0.004396
    17  C   -0.111249   0.004670
    18  H    0.130413  -0.000459
    19  H    0.155865   0.003117
    20  H    0.112162   0.000337
    21  H    0.125714   0.000090
    22  H    0.123977  -0.000226
    23  S   -0.032740   0.003662
    24  N    0.098147   0.375647
    25  C   -0.115742  -0.012235
    26  C   -0.064935   0.089050
    27  C   -0.080527   0.089908
    28  C   -0.103744  -0.050845
    29  C   -0.103651  -0.051932
    30  C   -0.060820   0.121611
    31  H    0.173065  -0.003836
    32  H    0.182200  -0.003837
    33  H    0.149583   0.002683
    34  H    0.149999   0.002724
    35  H    0.153223  -0.006066
    36  C   -0.124567  -0.012894
    37  C   -0.059050   0.088744
    38  C   -0.076778   0.090073
    39  C   -0.104897  -0.050701
    40  C   -0.108763  -0.052233
    41  C   -0.058571   0.121421
    42  H    0.174001  -0.003857
    43  H    0.183924  -0.003549
    44  H    0.149823   0.002711
    45  H    0.148060   0.002682
    46  H    0.152994  -0.006059
 Sum of Mulliken charges =   1.00000   1.00000

 Dipole moment (field-independent basis, Debye):
    X=             10.4742    Y=              1.1870    Z=              1.3213  Tot=             10.6238
 Quadrupole moment (field-independent basis, Debye-Ang):
   XX=            -70.0148   YY=           -130.2157   ZZ=           -160.3879
   XY=             -5.5789   XZ=             -5.1054   YZ=             -1.5689

 Normal termination of Gaussian 16 at Tue Jan 19 11:20:56 2021.
