 Gaussian 16, Revision A.03,
 Gaussian 16:  EM64L-G16RevA.03 25-Dec-2016

 ----------------------------------------------------------------------
 #P LC-wHPBE/TZVP iop(3/107=0180300000, 3/108=0180300000) scf=(conver=6
 ,fermi,ndamp=35,noincfock,novaracc,vshift=500,xqc)
 ----------------------------------------------------------------------

 -------------
 H19 C24 S2 N1
 -------------
 Symbolic Z-matrix:
 Charge =  1 Multiplicity = 2

                         Standard orientation:
 ---------------------------------------------------------------------
 Center     Atomic      Atomic             Coordinates (Angstroms)
 Number     Number       Type             X           Y           Z
 ---------------------------------------------------------------------
      1          6           0       -3.352046    1.022081    0.901490
      2          6           0       -4.015603    0.124147    0.077833
      3         16           0       -3.193622   -0.833868   -1.176213
      4          6           0       -5.398593   -0.028228    0.207342
      5          6           0       -0.749106    0.373785   -1.531691
      6          6           0       -1.475477   -0.566990   -0.815552
      7          6           0       -4.041516    1.761821    1.844012
      8          6           0       -6.080951    0.720801    1.156415
      9          1           0       -7.475944   -0.835079   -0.458792
     10          6           0        0.601771    0.547170   -1.299188
     11          6           0       -0.823428   -1.336346    0.139234
     12          6           0        0.521569   -1.154920    0.389409
     13          6           0        1.255724   -0.212476   -0.331046
     14          1           0        1.160253    1.275483   -1.876291
     15          1           0       -1.383265   -2.076857    0.700814
     16          1           0        1.015474   -1.752114    1.147605
     17          6           0       -5.411167    1.613701    1.970885
     18          1           0       -2.279577    1.141824    0.800598
     19          1           0       -1.248138    0.967582   -2.290346
     20          1           0       -3.503227    2.458074    2.478369
     21          1           0       -7.154267    0.598627    1.263844
     22          1           0       -5.962434    2.189124    2.706912
     23         16           0       -6.238224   -1.192989   -0.835805
     24          7           0        2.627173   -0.037586   -0.087724
     25          6           0        3.438312   -1.140752    0.276409
     26          6           0        4.374889   -1.012928    1.295896
     27          6           0        3.317625   -2.356550   -0.387733
     28          6           0        5.179400   -2.084309    1.640010
     29          6           0        4.112866   -3.428755   -0.025756
     30          6           0        5.049979   -3.298472    0.986151
     31          1           0        4.470709   -0.064848    1.814448
     32          1           0        2.593785   -2.456724   -1.189607
     33          1           0        5.907450   -1.970366    2.436839
     34          1           0        4.006805   -4.372570   -0.551042
     35          1           0        5.677330   -4.139106    1.262850
     36          6           0        3.224517    1.239724   -0.221989
     37          6           0        4.446224    1.376745   -0.871250
     38          6           0        2.604731    2.367846    0.304633
     39          6           0        5.037460    2.622109   -0.986244
     40          6           0        3.193018    3.612223    0.169883
     41          6           0        4.413292    3.746533   -0.472133
     42          1           0        4.931907    0.498005   -1.282066
     43          1           0        1.656156    2.262505    0.820378
     44          1           0        5.992055    2.714270   -1.494403
     45          1           0        2.697309    4.484427    0.584059
     46          1           0        4.876004    4.722810   -0.569917
 ---------------------------------------------------------------------

 SCF Done:  E(ULC-wHPBE) =  -1775.94337731     A.U. after   33 cycles
 SCF Done:  E(ULC-wHPBE) =  -1775.95710705     a.u. after   55 cycles

 The electronic state is 2-A.
 Alpha  occ. eigenvalues --  -88.29994 -88.27310 -14.33200 -10.18860 -10.18117
 Alpha  occ. eigenvalues --  -10.18078 -10.15865 -10.14075 -10.13951 -10.13585
 Alpha  occ. eigenvalues --  -10.13509 -10.13493 -10.13463 -10.12898 -10.12885
 Alpha  occ. eigenvalues --  -10.12633 -10.12584 -10.12402 -10.12365 -10.12331
 Alpha  occ. eigenvalues --  -10.12324 -10.11848 -10.11451 -10.07997 -10.07428
 Alpha  occ. eigenvalues --  -10.07022 -10.06889  -7.89149  -7.86595  -5.91416
 Alpha  occ. eigenvalues --   -5.90897  -5.90103  -5.88815  -5.88330  -5.87580
 Alpha  occ. eigenvalues --   -1.17962  -1.04691  -1.03954  -1.02261  -0.99771
 Alpha  occ. eigenvalues --   -0.96222  -0.94703  -0.92812  -0.92782  -0.92397
 Alpha  occ. eigenvalues --   -0.91698  -0.90918  -0.88855  -0.84926  -0.82746
 Alpha  occ. eigenvalues --   -0.82480  -0.80635  -0.79678  -0.78885  -0.78391
 Alpha  occ. eigenvalues --   -0.75878  -0.74230  -0.73521  -0.73307  -0.71419
 Alpha  occ. eigenvalues --   -0.68703  -0.67744  -0.67312  -0.66402  -0.64735
 Alpha  occ. eigenvalues --   -0.64405  -0.63782  -0.62417  -0.62265  -0.61989
 Alpha  occ. eigenvalues --   -0.61573  -0.61160  -0.60952  -0.60848  -0.59439
 Alpha  occ. eigenvalues --   -0.58532  -0.58234  -0.57957  -0.56339  -0.55509
 Alpha  occ. eigenvalues --   -0.55087  -0.54712  -0.54543  -0.53933  -0.53291
 Alpha  occ. eigenvalues --   -0.53082  -0.52193  -0.51598  -0.50561  -0.48631
 Alpha  occ. eigenvalues --   -0.47457  -0.47160  -0.46965  -0.45785  -0.45663
 Alpha  occ. eigenvalues --   -0.45281  -0.44628  -0.43719  -0.41201  -0.37673
 Alpha  occ. eigenvalues --   -0.35306
 Alpha virt. eigenvalues --   -0.12414  -0.11659  -0.11374  -0.09429  -0.09096
 Alpha virt. eigenvalues --   -0.07639  -0.04920  -0.04504  -0.03369  -0.02297
 Alpha virt. eigenvalues --   -0.00572  -0.00296   0.00395   0.01351   0.01776

  Beta  occ. eigenvalues --  -88.29986 -88.27308 -14.32363 -10.18904 -10.18156
  Beta  occ. eigenvalues --  -10.18116 -10.15658 -10.13909 -10.13800 -10.13455
  Beta  occ. eigenvalues --  -10.13380 -10.13366 -10.13336 -10.12968 -10.12952
  Beta  occ. eigenvalues --  -10.12497 -10.12447 -10.12446 -10.12410 -10.12381
  Beta  occ. eigenvalues --  -10.12367 -10.11821 -10.11446 -10.07992 -10.07429
  Beta  occ. eigenvalues --  -10.07023 -10.06884  -7.89141  -7.86593  -5.91415
  Beta  occ. eigenvalues --   -5.90887  -5.90081  -5.88813  -5.88328  -5.87576
  Beta  occ. eigenvalues --   -1.16885  -1.04455  -1.03755  -1.01985  -0.99710
  Beta  occ. eigenvalues --   -0.95982  -0.94501  -0.92655  -0.92633  -0.92252
  Beta  occ. eigenvalues --   -0.91574  -0.90838  -0.88509  -0.84824  -0.82680
  Beta  occ. eigenvalues --   -0.82237  -0.80460  -0.79409  -0.78723  -0.78237
  Beta  occ. eigenvalues --   -0.75724  -0.74189  -0.73355  -0.73147  -0.71371
  Beta  occ. eigenvalues --   -0.68537  -0.67367  -0.66731  -0.66280  -0.64586
  Beta  occ. eigenvalues --   -0.64311  -0.63678  -0.62343  -0.62118  -0.61856
  Beta  occ. eigenvalues --   -0.61467  -0.61049  -0.60910  -0.60778  -0.58991
  Beta  occ. eigenvalues --   -0.58298  -0.57843  -0.57551  -0.55936  -0.55468
  Beta  occ. eigenvalues --   -0.54927  -0.54524  -0.54171  -0.53777  -0.53149
  Beta  occ. eigenvalues --   -0.52979  -0.51641  -0.51416  -0.50052  -0.48554
  Beta  occ. eigenvalues --   -0.46730  -0.46604  -0.46228  -0.45437  -0.45213
  Beta  occ. eigenvalues --   -0.44976  -0.44063  -0.43677  -0.37585  -0.35179
  Beta virt. eigenvalues --   -0.25291  -0.11694  -0.11323  -0.10844  -0.08943
  Beta virt. eigenvalues --   -0.08704  -0.06605  -0.04872  -0.04464  -0.03242
  Beta virt. eigenvalues --   -0.02208  -0.00489  -0.00212   0.00458   0.01406

 Mulliken charges and spin densities:
               1          2
     1  C    0.033456   0.005202
     2  C   -0.158379   0.009173
     3  S    0.081723   0.014810
     4  C   -0.127340   0.003898
     5  C   -0.041051  -0.071039
     6  C   -0.214896   0.159099
     7  C   -0.143401  -0.001206
     8  C   -0.025458  -0.002136
     9  H    0.116281   0.000102
    10  C   -0.086048   0.121724
    11  C   -0.021656  -0.067844
    12  C   -0.095421   0.109260
    13  C   -0.014059  -0.014548
    14  H    0.188689  -0.005092
    15  H    0.160403   0.002992
    16  H    0.190484  -0.004383
    17  C   -0.111168   0.004780
    18  H    0.130397  -0.000461
    19  H    0.155787   0.003102
    20  H    0.112133   0.000339
    21  H    0.125665   0.000091
    22  H    0.123942  -0.000232
    23  S   -0.032721   0.003755
    24  N    0.098124   0.375043
    25  C   -0.115718  -0.012039
    26  C   -0.064916   0.088857
    27  C   -0.080522   0.089712
    28  C   -0.103661  -0.050659
    29  C   -0.103568  -0.051743
    30  C   -0.060785   0.121422
    31  H    0.172973  -0.003828
    32  H    0.182096  -0.003830
    33  H    0.149515   0.002676
    34  H    0.149928   0.002716
    35  H    0.153152  -0.006058
    36  C   -0.124551  -0.012694
    37  C   -0.059028   0.088548
    38  C   -0.076774   0.089881
    39  C   -0.104813  -0.050513
    40  C   -0.108682  -0.052047
    41  C   -0.058534   0.121235
    42  H    0.173910  -0.003849
    43  H    0.183822  -0.003542
    44  H    0.149756   0.002703
    45  H    0.147988   0.002674
    46  H    0.152924  -0.006051
 Sum of Mulliken charges =   1.00000   1.00000

 Dipole moment (field-independent basis, Debye):
    X=             10.4591    Y=              1.1861    Z=              1.3205  Tot=             10.6086
 Quadrupole moment (field-independent basis, Debye-Ang):
   XX=            -69.9960   YY=           -130.2263   ZZ=           -160.3885
   XY=             -5.5734   XZ=             -5.1036   YZ=             -1.5641

 Normal termination of Gaussian 16 at Tue Jan 19 19:43:27 2021.
