 Gaussian 16, Revision A.03,
 Gaussian 16:  EM64L-G16RevA.03 25-Dec-2016

 ----------------------------------------------------------------------
 #P LC-wHPBE/TZVP iop(3/107=0198600000, 3/108=0198600000) scf=(conver=6
 ,fermi,ndamp=35,noincfock,novaracc,vshift=500,xqc)
 ----------------------------------------------------------------------

 -------------
 H19 C24 S2 N1
 -------------
 Symbolic Z-matrix:
 Charge =  1 Multiplicity = 2

                         Standard orientation:
 ---------------------------------------------------------------------
 Center     Atomic      Atomic             Coordinates (Angstroms)
 Number     Number       Type             X           Y           Z
 ---------------------------------------------------------------------
      1          6           0       -3.352046    1.022081    0.901490
      2          6           0       -4.015603    0.124147    0.077833
      3         16           0       -3.193622   -0.833868   -1.176213
      4          6           0       -5.398593   -0.028228    0.207342
      5          6           0       -0.749106    0.373785   -1.531691
      6          6           0       -1.475477   -0.566990   -0.815552
      7          6           0       -4.041516    1.761821    1.844012
      8          6           0       -6.080951    0.720801    1.156415
      9          1           0       -7.475944   -0.835079   -0.458792
     10          6           0        0.601771    0.547170   -1.299188
     11          6           0       -0.823428   -1.336346    0.139234
     12          6           0        0.521569   -1.154920    0.389409
     13          6           0        1.255724   -0.212476   -0.331046
     14          1           0        1.160253    1.275483   -1.876291
     15          1           0       -1.383265   -2.076857    0.700814
     16          1           0        1.015474   -1.752114    1.147605
     17          6           0       -5.411167    1.613701    1.970885
     18          1           0       -2.279577    1.141824    0.800598
     19          1           0       -1.248138    0.967582   -2.290346
     20          1           0       -3.503227    2.458074    2.478369
     21          1           0       -7.154267    0.598627    1.263844
     22          1           0       -5.962434    2.189124    2.706912
     23         16           0       -6.238224   -1.192989   -0.835805
     24          7           0        2.627173   -0.037586   -0.087724
     25          6           0        3.438312   -1.140752    0.276409
     26          6           0        4.374889   -1.012928    1.295896
     27          6           0        3.317625   -2.356550   -0.387733
     28          6           0        5.179400   -2.084309    1.640010
     29          6           0        4.112866   -3.428755   -0.025756
     30          6           0        5.049979   -3.298472    0.986151
     31          1           0        4.470709   -0.064848    1.814448
     32          1           0        2.593785   -2.456724   -1.189607
     33          1           0        5.907450   -1.970366    2.436839
     34          1           0        4.006805   -4.372570   -0.551042
     35          1           0        5.677330   -4.139106    1.262850
     36          6           0        3.224517    1.239724   -0.221989
     37          6           0        4.446224    1.376745   -0.871250
     38          6           0        2.604731    2.367846    0.304633
     39          6           0        5.037460    2.622109   -0.986244
     40          6           0        3.193018    3.612223    0.169883
     41          6           0        4.413292    3.746533   -0.472133
     42          1           0        4.931907    0.498005   -1.282066
     43          1           0        1.656156    2.262505    0.820378
     44          1           0        5.992055    2.714270   -1.494403
     45          1           0        2.697309    4.484427    0.584059
     46          1           0        4.876004    4.722810   -0.569917
 ---------------------------------------------------------------------

 SCF Done:  E(ULC-wHPBE) =  -1775.96843835     A.U. after   33 cycles
 SCF Done:  E(ULC-wHPBE) =  -1775.98332355     a.u. after    7 cycles

 The electronic state is 2-A.
 Alpha  occ. eigenvalues --  -88.30871 -88.28194 -14.34458 -10.19949 -10.19239
 Alpha  occ. eigenvalues --  -10.19202 -10.16923 -10.15159 -10.15052 -10.14706
 Alpha  occ. eigenvalues --  -10.14634 -10.14619 -10.14590 -10.13934 -10.13921
 Alpha  occ. eigenvalues --  -10.13737 -10.13691 -10.13488 -10.13453 -10.13419
 Alpha  occ. eigenvalues --  -10.13413 -10.12816 -10.12410 -10.08966 -10.08392
 Alpha  occ. eigenvalues --  -10.07994 -10.07848  -7.90048  -7.87498  -5.92300
 Alpha  occ. eigenvalues --   -5.91775  -5.90966  -5.89700  -5.89211  -5.88454
 Alpha  occ. eigenvalues --   -1.19209  -1.05831  -1.05131  -1.03415  -1.00804
 Alpha  occ. eigenvalues --   -0.97301  -0.95831  -0.93904  -0.93879  -0.93518
 Alpha  occ. eigenvalues --   -0.92755  -0.91921  -0.89892  -0.85908  -0.83694
 Alpha  occ. eigenvalues --   -0.83522  -0.81617  -0.80703  -0.79897  -0.79393
 Alpha  occ. eigenvalues --   -0.76856  -0.75126  -0.74486  -0.74294  -0.72282
 Alpha  occ. eigenvalues --   -0.69654  -0.68703  -0.68268  -0.67245  -0.65624
 Alpha  occ. eigenvalues --   -0.65295  -0.64636  -0.63300  -0.63158  -0.62826
 Alpha  occ. eigenvalues --   -0.62443  -0.62028  -0.61734  -0.61726  -0.60322
 Alpha  occ. eigenvalues --   -0.59393  -0.59039  -0.58887  -0.57131  -0.56206
 Alpha  occ. eigenvalues --   -0.55897  -0.55506  -0.55357  -0.54737  -0.54060
 Alpha  occ. eigenvalues --   -0.53876  -0.52973  -0.52266  -0.51234  -0.49279
 Alpha  occ. eigenvalues --   -0.48086  -0.47835  -0.47621  -0.46429  -0.46299
 Alpha  occ. eigenvalues --   -0.45908  -0.45227  -0.44323  -0.41833  -0.38166
 Alpha  occ. eigenvalues --   -0.35766
 Alpha virt. eigenvalues --   -0.12008  -0.11258  -0.10974  -0.08975  -0.08664
 Alpha virt. eigenvalues --   -0.07200  -0.04384  -0.03965  -0.02787  -0.01876
 Alpha virt. eigenvalues --   -0.00141   0.00190   0.00839   0.01787   0.02293

  Beta  occ. eigenvalues --  -88.30866 -88.28193 -14.33591 -10.20003 -10.19285
  Beta  occ. eigenvalues --  -10.19247 -10.16709 -10.14986 -10.14892 -10.14571
  Beta  occ. eigenvalues --  -10.14499 -10.14486 -10.14457 -10.14011 -10.13997
  Beta  occ. eigenvalues --  -10.13596 -10.13548 -10.13540 -10.13504 -10.13475
  Beta  occ. eigenvalues --  -10.13462 -10.12790 -10.12407 -10.08962 -10.08392
  Beta  occ. eigenvalues --  -10.07995 -10.07845  -7.90043  -7.87497  -5.92301
  Beta  occ. eigenvalues --   -5.91768  -5.90951  -5.89699  -5.89210  -5.88452
  Beta  occ. eigenvalues --   -1.18096  -1.05593  -1.04929  -1.03129  -1.00745
  Beta  occ. eigenvalues --   -0.97060  -0.95627  -0.93749  -0.93722  -0.93369
  Beta  occ. eigenvalues --   -0.92622  -0.91842  -0.89535  -0.85806  -0.83627
  Beta  occ. eigenvalues --   -0.83272  -0.81444  -0.80424  -0.79734  -0.79235
  Beta  occ. eigenvalues --   -0.76699  -0.75085  -0.74318  -0.74132  -0.72235
  Beta  occ. eigenvalues --   -0.69481  -0.68289  -0.67660  -0.67120  -0.65475
  Beta  occ. eigenvalues --   -0.65198  -0.64530  -0.63224  -0.63002  -0.62688
  Beta  occ. eigenvalues --   -0.62329  -0.61912  -0.61692  -0.61653  -0.59841
  Beta  occ. eigenvalues --   -0.59079  -0.58715  -0.58452  -0.56665  -0.56160
  Beta  occ. eigenvalues --   -0.55732  -0.55319  -0.54959  -0.54566  -0.53918
  Beta  occ. eigenvalues --   -0.53769  -0.52315  -0.52104  -0.50698  -0.49197
  Beta  occ. eigenvalues --   -0.47307  -0.47236  -0.46845  -0.46069  -0.45804
  Beta  occ. eigenvalues --   -0.45608  -0.44609  -0.44290  -0.38106  -0.35692
  Beta virt. eigenvalues --   -0.25049  -0.11266  -0.10901  -0.10437  -0.08453
  Beta virt. eigenvalues --   -0.08244  -0.06067  -0.04346  -0.03934  -0.02662
  Beta virt. eigenvalues --   -0.01787  -0.00060   0.00275   0.00900   0.01841

 Mulliken charges and spin densities:
               1          2
     1  C    0.030203   0.004455
     2  C   -0.157669   0.008826
     3  S    0.083316   0.008421
     4  C   -0.129298   0.002463
     5  C   -0.042737  -0.077537
     6  C   -0.219526   0.165144
     7  C   -0.145340  -0.000906
     8  C   -0.027958  -0.001298
     9  H    0.115561   0.000132
    10  C   -0.086263   0.127540
    11  C   -0.023209  -0.074923
    12  C   -0.095498   0.117162
    13  C   -0.016255  -0.021760
    14  H    0.191177  -0.005286
    15  H    0.162601   0.003300
    16  H    0.193012  -0.004675
    17  C   -0.113305   0.002911
    18  H    0.131373  -0.000436
    19  H    0.157900   0.003469
    20  H    0.113351   0.000308
    21  H    0.127282   0.000071
    22  H    0.125266  -0.000134
    23  S   -0.032494   0.002201
    24  N    0.097978   0.389119
    25  C   -0.116465  -0.017426
    26  C   -0.065680   0.093747
    27  C   -0.080938   0.094577
    28  C   -0.105937  -0.055594
    29  C   -0.105815  -0.056729
    30  C   -0.062064   0.126138
    31  H    0.175431  -0.004019
    32  H    0.184813  -0.004015
    33  H    0.151335   0.002870
    34  H    0.151799   0.002912
    35  H    0.155028  -0.006253
    36  C   -0.125112  -0.018168
    37  C   -0.059881   0.093503
    38  C   -0.077198   0.094678
    39  C   -0.107096  -0.055488
    40  C   -0.110862  -0.056956
    41  C   -0.059852   0.125902
    42  H    0.176356  -0.004043
    43  H    0.186433  -0.003725
    44  H    0.151561   0.002899
    45  H    0.149883   0.002868
    46  H    0.154792  -0.006244
 Sum of Mulliken charges =   1.00000   1.00000

 Dipole moment (field-independent basis, Debye):
    X=             10.7295    Y=              1.2086    Z=              1.3399  Tot=             10.8801
 Quadrupole moment (field-independent basis, Debye-Ang):
   XX=            -70.3210   YY=           -130.0187   ZZ=           -160.3532
   XY=             -5.7056   XZ=             -5.1707   YZ=             -1.6476

 Normal termination of Gaussian 16 at Tue Jan 19 01:24:32 2021.
