 Gaussian 16, Revision A.03,
 Gaussian 16:  EM64L-G16RevA.03 25-Dec-2016

 ----------------------------------------------------------------------
 #P LC-wHPBE/TZVP iop(3/107=0155800000, 3/108=0155800000) scf=(conver=6
 ,fermi,ndamp=35,noincfock,novaracc,vshift=500,xqc)
 ----------------------------------------------------------------------

 -------------
 H19 C24 S2 N1
 -------------
 Symbolic Z-matrix:
 Charge =  1 Multiplicity = 2

                         Standard orientation:
 ---------------------------------------------------------------------
 Center     Atomic      Atomic             Coordinates (Angstroms)
 Number     Number       Type             X           Y           Z
 ---------------------------------------------------------------------
      1          6           0       -3.352046    1.022081    0.901490
      2          6           0       -4.015603    0.124147    0.077833
      3         16           0       -3.193622   -0.833868   -1.176213
      4          6           0       -5.398593   -0.028228    0.207342
      5          6           0       -0.749106    0.373785   -1.531691
      6          6           0       -1.475477   -0.566990   -0.815552
      7          6           0       -4.041516    1.761821    1.844012
      8          6           0       -6.080951    0.720801    1.156415
      9          1           0       -7.475944   -0.835079   -0.458792
     10          6           0        0.601771    0.547170   -1.299188
     11          6           0       -0.823428   -1.336346    0.139234
     12          6           0        0.521569   -1.154920    0.389409
     13          6           0        1.255724   -0.212476   -0.331046
     14          1           0        1.160253    1.275483   -1.876291
     15          1           0       -1.383265   -2.076857    0.700814
     16          1           0        1.015474   -1.752114    1.147605
     17          6           0       -5.411167    1.613701    1.970885
     18          1           0       -2.279577    1.141824    0.800598
     19          1           0       -1.248138    0.967582   -2.290346
     20          1           0       -3.503227    2.458074    2.478369
     21          1           0       -7.154267    0.598627    1.263844
     22          1           0       -5.962434    2.189124    2.706912
     23         16           0       -6.238224   -1.192989   -0.835805
     24          7           0        2.627173   -0.037586   -0.087724
     25          6           0        3.438312   -1.140752    0.276409
     26          6           0        4.374889   -1.012928    1.295896
     27          6           0        3.317625   -2.356550   -0.387733
     28          6           0        5.179400   -2.084309    1.640010
     29          6           0        4.112866   -3.428755   -0.025756
     30          6           0        5.049979   -3.298472    0.986151
     31          1           0        4.470709   -0.064848    1.814448
     32          1           0        2.593785   -2.456724   -1.189607
     33          1           0        5.907450   -1.970366    2.436839
     34          1           0        4.006805   -4.372570   -0.551042
     35          1           0        5.677330   -4.139106    1.262850
     36          6           0        3.224517    1.239724   -0.221989
     37          6           0        4.446224    1.376745   -0.871250
     38          6           0        2.604731    2.367846    0.304633
     39          6           0        5.037460    2.622109   -0.986244
     40          6           0        3.193018    3.612223    0.169883
     41          6           0        4.413292    3.746533   -0.472133
     42          1           0        4.931907    0.498005   -1.282066
     43          1           0        1.656156    2.262505    0.820378
     44          1           0        5.992055    2.714270   -1.494403
     45          1           0        2.697309    4.484427    0.584059
     46          1           0        4.876004    4.722810   -0.569917
 ---------------------------------------------------------------------

 SCF Done:  E(ULC-wHPBE) =  -1775.91014206     A.U. after   33 cycles
 SCF Done:  E(ULC-wHPBE) =  -1775.92165815     a.u. after   43 cycles

 The electronic state is 2-A.
 Alpha  occ. eigenvalues --  -88.29162 -88.26436 -14.31129 -10.17264 -10.16378
 Alpha  occ. eigenvalues --  -10.16329 -10.14437 -10.12508 -10.12339 -10.11865
 Alpha  occ. eigenvalues --  -10.11775 -10.11758 -10.11722 -10.11493 -10.11478
 Alpha  occ. eigenvalues --  -10.10944 -10.10885 -10.10841 -10.10761 -10.10716
 Alpha  occ. eigenvalues --  -10.10679 -10.10666 -10.10476 -10.06938 -10.06387
 Alpha  occ. eigenvalues --  -10.05969 -10.05883  -7.88277  -7.85695  -5.90551
 Alpha  occ. eigenvalues --   -5.90041  -5.89297  -5.87932  -5.87452  -5.86721
 Alpha  occ. eigenvalues --   -1.16006  -1.03074  -1.02159  -1.00549  -0.98631
 Alpha  occ. eigenvalues --   -0.94763  -0.92985  -0.91239  -0.91192  -0.90680
 Alpha  occ. eigenvalues --   -0.90304  -0.89713  -0.87440  -0.83712  -0.81647
 Alpha  occ. eigenvalues --   -0.80868  -0.79264  -0.78125  -0.77324  -0.76873
 Alpha  occ. eigenvalues --   -0.74416  -0.73188  -0.72035  -0.71738  -0.70442
 Alpha  occ. eigenvalues --   -0.67225  -0.66266  -0.65763  -0.65311  -0.63348
 Alpha  occ. eigenvalues --   -0.63047  -0.62585  -0.61076  -0.60855  -0.60734
 Alpha  occ. eigenvalues --   -0.60265  -0.60109  -0.59737  -0.59426  -0.58139
 Alpha  occ. eigenvalues --   -0.57478  -0.56949  -0.56440  -0.55263  -0.54760
 Alpha  occ. eigenvalues --   -0.53791  -0.53523  -0.53210  -0.53009  -0.52095
 Alpha  occ. eigenvalues --   -0.51776  -0.51020  -0.50819  -0.49711  -0.47924
 Alpha  occ. eigenvalues --   -0.46579  -0.45993  -0.45851  -0.44828  -0.44667
 Alpha  occ. eigenvalues --   -0.44299  -0.43945  -0.43106  -0.40088  -0.37217
 Alpha  occ. eigenvalues --   -0.34912
 Alpha virt. eigenvalues --   -0.12947  -0.12143  -0.11806  -0.10002  -0.09570
 Alpha virt. eigenvalues --   -0.08151  -0.05973  -0.05562  -0.04433  -0.02864
 Alpha virt. eigenvalues --   -0.01191  -0.00966  -0.00251   0.00696   0.00998

  Beta  occ. eigenvalues --  -88.29142 -88.26431 -14.30356 -10.17295 -10.16407
  Beta  occ. eigenvalues --  -10.16358 -10.14246 -10.12354 -10.12207 -10.11746
  Beta  occ. eigenvalues --  -10.11657 -10.11642 -10.11606 -10.11551 -10.11533
  Beta  occ. eigenvalues --  -10.10828 -10.10808 -10.10792 -10.10763 -10.10751
  Beta  occ. eigenvalues --  -10.10720 -10.10699 -10.10461 -10.06930 -10.06391
  Beta  occ. eigenvalues --  -10.05969 -10.05869  -7.88258  -7.85690  -5.90542
  Beta  occ. eigenvalues --   -5.90024  -5.89246  -5.87929  -5.87449  -5.86708
  Beta  occ. eigenvalues --   -1.15012  -1.02847  -1.01971  -1.00298  -0.98553
  Beta  occ. eigenvalues --   -0.94524  -0.92795  -0.91088  -0.91057  -0.90544
  Beta  occ. eigenvalues --   -0.90220  -0.89607  -0.87098  -0.83602  -0.81576
  Beta  occ. eigenvalues --   -0.80644  -0.79070  -0.77878  -0.77165  -0.76733
  Beta  occ. eigenvalues --   -0.74273  -0.73138  -0.71879  -0.71587  -0.70381
  Beta  occ. eigenvalues --   -0.67073  -0.65939  -0.65278  -0.65167  -0.63195
  Beta  occ. eigenvalues --   -0.62955  -0.62484  -0.60998  -0.60724  -0.60615
  Beta  occ. eigenvalues --   -0.60179  -0.60057  -0.59633  -0.59362  -0.57828
  Beta  occ. eigenvalues --   -0.57288  -0.56456  -0.56079  -0.54975  -0.54710
  Beta  occ. eigenvalues --   -0.53623  -0.53339  -0.53027  -0.52712  -0.51934
  Beta  occ. eigenvalues --   -0.51682  -0.50847  -0.50466  -0.49176  -0.47860
  Beta  occ. eigenvalues --   -0.45982  -0.45571  -0.45140  -0.44556  -0.44190
  Beta  occ. eigenvalues --   -0.44061  -0.43347  -0.43017  -0.37024  -0.34538
  Beta virt. eigenvalues --   -0.25622  -0.12286  -0.11853  -0.11293  -0.09576
  Beta virt. eigenvalues --   -0.09224  -0.07281  -0.05886  -0.05485  -0.04282
  Beta virt. eigenvalues --   -0.02778  -0.01093  -0.00894  -0.00183   0.00760

 Mulliken charges and spin densities:
               1          2
     1  C    0.038438   0.007106
     2  C   -0.161138   0.011903
     3  S    0.086621   0.038039
     4  C   -0.125280   0.010211
     5  C   -0.039364  -0.061607
     6  C   -0.209425   0.146556
     7  C   -0.140147  -0.001230
     8  C   -0.021601  -0.005705
     9  H    0.118162  -0.000099
    10  C   -0.086967   0.112434
    11  C   -0.019877  -0.056911
    12  C   -0.096986   0.094455
    13  C   -0.011226  -0.005658
    14  H    0.185793  -0.004768
    15  H    0.157350   0.002550
    16  H    0.187454  -0.003812
    17  C   -0.107718   0.012602
    18  H    0.132008  -0.000537
    19  H    0.152987   0.002461
    20  H    0.112701   0.000351
    21  H    0.125009   0.000186
    22  H    0.124076  -0.000636
    23  S   -0.028337   0.011758
    24  N    0.094623   0.346285
    25  C   -0.114958  -0.005987
    26  C   -0.065123   0.080527
    27  C   -0.081260   0.081172
    28  C   -0.101091  -0.043577
    29  C   -0.101020  -0.044455
    30  C   -0.060679   0.112484
    31  H    0.169599  -0.003490
    32  H    0.177902  -0.003491
    33  H    0.146862   0.002376
    34  H    0.147103   0.002411
    35  H    0.150351  -0.005659
    36  C   -0.124041  -0.006426
    37  C   -0.059022   0.080079
    38  C   -0.077537   0.081551
    39  C   -0.102189  -0.043330
    40  C   -0.106163  -0.044967
    41  C   -0.058396   0.112449
    42  H    0.170643  -0.003505
    43  H    0.179502  -0.003208
    44  H    0.147171   0.002396
    45  H    0.145045   0.002378
    46  H    0.150144  -0.005660
 Sum of Mulliken charges =   1.00000   1.00000

 Dipole moment (field-independent basis, Debye):
    X=              9.3300    Y=              1.1546    Z=              1.3011  Tot=              9.4907
 Quadrupole moment (field-independent basis, Debye-Ang):
   XX=            -68.4910   YY=           -130.9358   ZZ=           -160.3196
   XY=             -5.3522   XZ=             -5.1389   YZ=             -1.2047

 Normal termination of Gaussian 16 at Mon Jan 18 20:36:18 2021.
