 Gaussian 16, Revision A.03,
 Gaussian 16:  EM64L-G16RevA.03 25-Dec-2016

 ----------------------------------------------------------------------
 #P LC-wHPBE/TZVP iop(3/107=0328100000, 3/108=0328100000) scf=(conver=6
 ,fermi,ndamp=35,noincfock,novaracc,vshift=500,xqc)
 ----------------------------------------------------------------------

 -------
 H10 C12
 -------
 Symbolic Z-matrix:
 Charge =  1 Multiplicity = 2

                         Standard orientation:
 ---------------------------------------------------------------------
 Center     Atomic      Atomic             Coordinates (Angstroms)
 Number     Number       Type             X           Y           Z
 ---------------------------------------------------------------------
      1          6           0       -2.858500   -1.132993   -0.413690
      2          6           0       -3.561927    0.000084    0.000146
      3          6           0       -1.463685   -1.132747   -0.413534
      4          6           0       -2.858269    1.133176    0.413741
      5          6           0       -0.742381   -0.000123   -0.000091
      6          6           0       -1.463491    1.132675    0.413489
      7          1           0       -4.653174    0.000160    0.000261
      8          1           0       -0.922222   -2.014213   -0.762301
      9          1           0       -3.398792    2.020986    0.747134
     10          1           0       -0.921754    2.014027    0.762095
     11          6           0        0.742385   -0.000142   -0.000197
     12          6           0        1.463539    1.132637   -0.413582
     13          6           0        1.463636   -1.132765    0.413477
     14          6           0        2.858357    1.133114   -0.413660
     15          6           0        2.858412   -1.133073    0.413706
     16          6           0        3.561931    0.000095    0.000087
     17          1           0        0.921935    2.014039   -0.762261
     18          1           0        0.922017   -2.014128    0.762265
     19          1           0        3.398826    2.021000   -0.746938
     20          1           0        3.399026   -2.020805    0.747168
     21          1           0        4.653184    0.000117    0.000198
     22          1           0       -3.399078   -2.020813   -0.746974
 ---------------------------------------------------------------------

 SCF Done:  E(ULC-wHPBE) =  -462.757690706     A.U. after   17 cycles

 The electronic state is 2-A.
 Alpha  occ. eigenvalues --  -10.28324 -10.28311 -10.25969 -10.25969 -10.25610
 Alpha  occ. eigenvalues --  -10.25609 -10.25608 -10.25606 -10.24150 -10.24150
 Alpha  occ. eigenvalues --  -10.24148 -10.24148  -1.17040  -1.14266  -1.07397
 Alpha  occ. eigenvalues --   -1.03744  -1.02761  -1.01771  -0.91107  -0.90473
 Alpha  occ. eigenvalues --   -0.87499  -0.85945  -0.81606  -0.77823  -0.74784
 Alpha  occ. eigenvalues --   -0.74117  -0.72444  -0.70875  -0.69908  -0.69544
 Alpha  occ. eigenvalues --   -0.68919  -0.67426  -0.65573  -0.63415  -0.61798
 Alpha  occ. eigenvalues --   -0.60677  -0.60343  -0.56232  -0.52309  -0.52240
 Alpha  occ. eigenvalues --   -0.51235
 Alpha virt. eigenvalues --   -0.14665  -0.10554  -0.10346  -0.08360  -0.00356
 Alpha virt. eigenvalues --    0.00539   0.01666   0.03457   0.03986   0.05174
 Alpha virt. eigenvalues --    0.05684   0.06077   0.06620   0.06649   0.07615

  Beta  occ. eigenvalues --  -10.28150 -10.28133 -10.25564 -10.25564 -10.25406
  Beta  occ. eigenvalues --  -10.25406 -10.25403 -10.25402 -10.24279 -10.24278
  Beta  occ. eigenvalues --  -10.24276 -10.24276  -1.16428  -1.13714  -1.06729
  Beta  occ. eigenvalues --   -1.03529  -1.02627  -1.00474  -0.90622  -0.90249
  Beta  occ. eigenvalues --   -0.87092  -0.85636  -0.81459  -0.77524  -0.74571
  Beta  occ. eigenvalues --   -0.73939  -0.71800  -0.70709  -0.69616  -0.69467
  Beta  occ. eigenvalues --   -0.68675  -0.66028  -0.63229  -0.62814  -0.61634
  Beta  occ. eigenvalues --   -0.60582  -0.60073  -0.52028  -0.51947  -0.51437
  Beta virt. eigenvalues --   -0.29629  -0.12090  -0.09615  -0.08967  -0.05842
  Beta virt. eigenvalues --   -0.00275   0.00643   0.01748   0.03580   0.04180
  Beta virt. eigenvalues --    0.05423   0.06083   0.06104   0.06769   0.06948

 Mulliken charges and spin densities:
               1          2
     1  C   -0.101803  -0.129873
     2  C   -0.057977   0.344063
     3  C   -0.107902   0.163242
     4  C   -0.101829  -0.129907
     5  C    0.015409   0.113397
     6  C   -0.107925   0.163279
     7  H    0.192028  -0.015432
     8  H    0.201103  -0.009129
     9  H    0.183886   0.004744
    10  H    0.201120  -0.009127
    11  C    0.015390   0.113385
    12  C   -0.107892   0.163306
    13  C   -0.107919   0.163220
    14  C   -0.101828  -0.129907
    15  C   -0.101816  -0.129877
    16  C   -0.057969   0.344062
    17  H    0.201104  -0.009133
    18  H    0.201123  -0.009123
    19  H    0.183889   0.004747
    20  H    0.183886   0.004744
    21  H    0.192029  -0.015431
    22  H    0.183892   0.004748
 Sum of Mulliken charges =   1.00000   1.00000

 Dipole moment (field-independent basis, Debye):
    X=             -0.0001    Y=              0.0001    Z=              0.0003  Tot=              0.0003
 Quadrupole moment (field-independent basis, Debye-Ang):
   XX=            -18.2446   YY=            -52.1318   ZZ=            -69.4216
   XY=              0.0008   XZ=              0.0005   YZ=             -0.0002

 Normal termination of Gaussian 16 at Sun Jan 17 09:42:50 2021.
