 Gaussian 16, Revision A.03,
 Gaussian 16:  EM64L-G16RevA.03 25-Dec-2016

 ----------------------------------------------------------------------
 #P LC-wHPBE/TZVP iop(3/107=0235700000, 3/108=0235700000) scf=(conver=6
 ,fermi,ndamp=35,noincfock,novaracc,vshift=500,xqc)
 ----------------------------------------------------------------------

 -------
 H10 C12
 -------
 Symbolic Z-matrix:
 Charge =  0 Multiplicity = 1

                         Standard orientation:
 ---------------------------------------------------------------------
 Center     Atomic      Atomic             Coordinates (Angstroms)
 Number     Number       Type             X           Y           Z
 ---------------------------------------------------------------------
      1          6           0       -2.858500   -1.132993   -0.413690
      2          6           0       -3.561927    0.000084    0.000146
      3          6           0       -1.463685   -1.132747   -0.413534
      4          6           0       -2.858269    1.133176    0.413741
      5          6           0       -0.742381   -0.000123   -0.000091
      6          6           0       -1.463491    1.132675    0.413489
      7          1           0       -4.653174    0.000160    0.000261
      8          1           0       -0.922222   -2.014213   -0.762301
      9          1           0       -3.398792    2.020986    0.747134
     10          1           0       -0.921754    2.014027    0.762095
     11          6           0        0.742385   -0.000142   -0.000197
     12          6           0        1.463539    1.132637   -0.413582
     13          6           0        1.463636   -1.132765    0.413477
     14          6           0        2.858357    1.133114   -0.413660
     15          6           0        2.858412   -1.133073    0.413706
     16          6           0        3.561931    0.000095    0.000087
     17          1           0        0.921935    2.014039   -0.762261
     18          1           0        0.922017   -2.014128    0.762265
     19          1           0        3.398826    2.021000   -0.746938
     20          1           0        3.399026   -2.020805    0.747168
     21          1           0        4.653184    0.000117    0.000198
     22          1           0       -3.399078   -2.020813   -0.746974
 ---------------------------------------------------------------------

 SCF Done:  E(RLC-wHPBE) =  -463.023413927     A.U. after   11 cycles

 The electronic state is 1-A.
 Alpha  occ. eigenvalues --  -10.03515 -10.03502 -10.02403 -10.02402 -10.02400
 Alpha  occ. eigenvalues --  -10.02400 -10.02342 -10.02341 -10.02340 -10.02340
 Alpha  occ. eigenvalues --  -10.02298 -10.02298  -0.93265  -0.91107  -0.84372
 Alpha  occ. eigenvalues --   -0.81661  -0.80906  -0.78746  -0.69467  -0.68944
 Alpha  occ. eigenvalues --   -0.66150  -0.64901  -0.60890  -0.57342  -0.54163
 Alpha  occ. eigenvalues --   -0.53857  -0.51254  -0.51228  -0.49686  -0.49294
 Alpha  occ. eigenvalues --   -0.49003  -0.46326  -0.44725  -0.43703  -0.42240
 Alpha  occ. eigenvalues --   -0.40791  -0.40597  -0.35802  -0.33485  -0.33436
 Alpha  occ. eigenvalues --   -0.30513
 Alpha virt. eigenvalues --    0.02245   0.04713   0.04954   0.07927   0.11848
 Alpha virt. eigenvalues --    0.12385   0.13998   0.15289   0.15811   0.17330
 Alpha virt. eigenvalues --    0.17622   0.18475   0.18876   0.19413   0.21608

 Mulliken charges:
               1
     1  C   -0.098171
     2  C   -0.127436
     3  C   -0.140726
     4  C   -0.098196
     5  C    0.000091
     6  C   -0.140759
     7  H    0.112404
     8  H    0.136106
     9  H    0.110278
    10  H    0.136130
    11  C    0.000075
    12  C   -0.140716
    13  C   -0.140743
    14  C   -0.098202
    15  C   -0.098184
    16  C   -0.127427
    17  H    0.136115
    18  H    0.136126
    19  H    0.110277
    20  H    0.110277
    21  H    0.112405
    22  H    0.110278
 Sum of Mulliken charges =  -0.00000

 Dipole moment (field-independent basis, Debye):
    X=             -0.0000    Y=              0.0001    Z=              0.0003  Tot=              0.0003
 Quadrupole moment (field-independent basis, Debye-Ang):
   XX=            -61.7825   YY=            -63.4529   ZZ=            -75.1796
   XY=              0.0005   XZ=              0.0005   YZ=             -0.0002

 Normal termination of Gaussian 16 at Sun Jan 17 10:05:50 2021.
