 Gaussian 16, Revision A.03,
 Gaussian 16:  EM64L-G16RevA.03 25-Dec-2016

 ----------------------------------------------------------------------
 #P LC-wHPBE/TZVP iop(3/107=0221900000, 3/108=0221900000) scf=(conver=6
 ,fermi,ndamp=35,noincfock,novaracc,vshift=500,xqc)
 ----------------------------------------------------------------------

 -------
 H10 C12
 -------
 Symbolic Z-matrix:
 Charge =  1 Multiplicity = 2

                         Standard orientation:
 ---------------------------------------------------------------------
 Center     Atomic      Atomic             Coordinates (Angstroms)
 Number     Number       Type             X           Y           Z
 ---------------------------------------------------------------------
      1          6           0       -2.858500   -1.132993   -0.413690
      2          6           0       -3.561927    0.000084    0.000146
      3          6           0       -1.463685   -1.132747   -0.413534
      4          6           0       -2.858269    1.133176    0.413741
      5          6           0       -0.742381   -0.000123   -0.000091
      6          6           0       -1.463491    1.132675    0.413489
      7          1           0       -4.653174    0.000160    0.000261
      8          1           0       -0.922222   -2.014213   -0.762301
      9          1           0       -3.398792    2.020986    0.747134
     10          1           0       -0.921754    2.014027    0.762095
     11          6           0        0.742385   -0.000142   -0.000197
     12          6           0        1.463539    1.132637   -0.413582
     13          6           0        1.463636   -1.132765    0.413477
     14          6           0        2.858357    1.133114   -0.413660
     15          6           0        2.858412   -1.133073    0.413706
     16          6           0        3.561931    0.000095    0.000087
     17          1           0        0.921935    2.014039   -0.762261
     18          1           0        0.922017   -2.014128    0.762265
     19          1           0        3.398826    2.021000   -0.746938
     20          1           0        3.399026   -2.020805    0.747168
     21          1           0        4.653184    0.000117    0.000198
     22          1           0       -3.399078   -2.020813   -0.746974
 ---------------------------------------------------------------------

 SCF Done:  E(ULC-wHPBE) =  -462.710888001     A.U. after   16 cycles

 The electronic state is 2-A.
 Alpha  occ. eigenvalues --  -10.22147 -10.22134 -10.19878 -10.19878 -10.19493
 Alpha  occ. eigenvalues --  -10.19492 -10.19491 -10.19490 -10.18258 -10.18258
 Alpha  occ. eigenvalues --  -10.18257 -10.18256  -1.10707  -1.08085  -1.01549
 Alpha  occ. eigenvalues --   -0.98031  -0.97138  -0.96157  -0.86117  -0.85514
 Alpha  occ. eigenvalues --   -0.82699  -0.81254  -0.77097  -0.73502  -0.70739
 Alpha  occ. eigenvalues --   -0.70021  -0.68479  -0.66945  -0.66043  -0.65679
 Alpha  occ. eigenvalues --   -0.65071  -0.63552  -0.61818  -0.59915  -0.58394
 Alpha  occ. eigenvalues --   -0.57371  -0.57029  -0.53646  -0.50099  -0.50046
 Alpha  occ. eigenvalues --   -0.48915
 Alpha virt. eigenvalues --   -0.15894  -0.12234  -0.12044  -0.10100  -0.01951
 Alpha virt. eigenvalues --   -0.01157   0.00116   0.01761   0.01952   0.03577
 Alpha virt. eigenvalues --    0.03583   0.04405   0.04764   0.05059   0.05120

  Beta  occ. eigenvalues --  -10.21947 -10.21933 -10.19525 -10.19525 -10.19332
  Beta  occ. eigenvalues --  -10.19332 -10.19330 -10.19329 -10.18330 -10.18330
  Beta  occ. eigenvalues --  -10.18329 -10.18328  -1.10160  -1.07616  -1.00952
  Beta  occ. eigenvalues --   -0.97824  -0.96984  -0.95150  -0.85698  -0.85272
  Beta  occ. eigenvalues --   -0.82346  -0.80947  -0.76953  -0.73257  -0.70525
  Beta  occ. eigenvalues --   -0.69836  -0.67965  -0.66777  -0.65777  -0.65604
  Beta  occ. eigenvalues --   -0.64883  -0.62570  -0.59902  -0.59747  -0.58243
  Beta  occ. eigenvalues --   -0.57266  -0.56762  -0.49848  -0.49739  -0.49684
  Beta virt. eigenvalues --   -0.30619  -0.13778  -0.11525  -0.11004  -0.08159
  Beta virt. eigenvalues --   -0.01875  -0.01061   0.00198   0.02075   0.02235
  Beta virt. eigenvalues --    0.03795   0.03871   0.04499   0.05243   0.05405

 Mulliken charges and spin densities:
               1          2
     1  C   -0.084259  -0.074889
     2  C   -0.051373   0.289628
     3  C   -0.094368   0.122987
     4  C   -0.084290  -0.074928
     5  C    0.017588   0.136896
     6  C   -0.094388   0.123025
     7  H    0.178790  -0.013494
     8  H    0.185853  -0.007240
     9  H    0.170286   0.002627
    10  H    0.185870  -0.007240
    11  C    0.017570   0.136888
    12  C   -0.094351   0.123044
    13  C   -0.094379   0.122971
    14  C   -0.084291  -0.074922
    15  C   -0.084277  -0.074898
    16  C   -0.051365   0.289628
    17  H    0.185855  -0.007244
    18  H    0.185872  -0.007237
    19  H    0.170289   0.002630
    20  H    0.170287   0.002628
    21  H    0.178790  -0.013494
    22  H    0.170292   0.002631
 Sum of Mulliken charges =   1.00000   1.00000

 Dipole moment (field-independent basis, Debye):
    X=             -0.0001    Y=              0.0001    Z=              0.0003  Tot=              0.0003
 Quadrupole moment (field-independent basis, Debye-Ang):
   XX=            -18.5226   YY=            -52.4177   ZZ=            -69.4039
   XY=              0.0007   XZ=              0.0005   YZ=             -0.0002

 Normal termination of Gaussian 16 at Sun Jan 17 09:39:06 2021.
