 Gaussian 16, Revision A.03,
 Gaussian 16:  EM64L-G16RevA.03 25-Dec-2016

 ----------------------------------------------------------------------
 #P LC-wHPBE/TZVP iop(3/107=0235400000, 3/108=0235400000) scf=(conver=6
 ,fermi,ndamp=35,noincfock,novaracc,vshift=500,xqc)
 ----------------------------------------------------------------------

 -------
 H10 C12
 -------
 Symbolic Z-matrix:
 Charge =  1 Multiplicity = 2

                         Standard orientation:
 ---------------------------------------------------------------------
 Center     Atomic      Atomic             Coordinates (Angstroms)
 Number     Number       Type             X           Y           Z
 ---------------------------------------------------------------------
      1          6           0       -2.858500   -1.132993   -0.413690
      2          6           0       -3.561927    0.000084    0.000146
      3          6           0       -1.463685   -1.132747   -0.413534
      4          6           0       -2.858269    1.133176    0.413741
      5          6           0       -0.742381   -0.000123   -0.000091
      6          6           0       -1.463491    1.132675    0.413489
      7          1           0       -4.653174    0.000160    0.000261
      8          1           0       -0.922222   -2.014213   -0.762301
      9          1           0       -3.398792    2.020986    0.747134
     10          1           0       -0.921754    2.014027    0.762095
     11          6           0        0.742385   -0.000142   -0.000197
     12          6           0        1.463539    1.132637   -0.413582
     13          6           0        1.463636   -1.132765    0.413477
     14          6           0        2.858357    1.133114   -0.413660
     15          6           0        2.858412   -1.133073    0.413706
     16          6           0        3.561931    0.000095    0.000087
     17          1           0        0.921935    2.014039   -0.762261
     18          1           0        0.922017   -2.014128    0.762265
     19          1           0        3.398826    2.021000   -0.746938
     20          1           0        3.399026   -2.020805    0.747168
     21          1           0        4.653184    0.000117    0.000198
     22          1           0       -3.399078   -2.020813   -0.746974
 ---------------------------------------------------------------------

 SCF Done:  E(ULC-wHPBE) =  -462.718133392     A.U. after   17 cycles

 The electronic state is 2-A.
 Alpha  occ. eigenvalues --  -10.22931 -10.22919 -10.20652 -10.20652 -10.20273
 Alpha  occ. eigenvalues --  -10.20272 -10.20271 -10.20270 -10.19007 -10.19007
 Alpha  occ. eigenvalues --  -10.19005 -10.19005  -1.11531  -1.08894  -1.02324
 Alpha  occ. eigenvalues --   -0.98794  -0.97890  -0.96909  -0.86801  -0.86198
 Alpha  occ. eigenvalues --   -0.83362  -0.81906  -0.77736  -0.74115  -0.71314
 Alpha  occ. eigenvalues --   -0.70603  -0.69047  -0.67505  -0.66594  -0.66232
 Alpha  occ. eigenvalues --   -0.65626  -0.64122  -0.62381  -0.60418  -0.58885
 Alpha  occ. eigenvalues --   -0.57848  -0.57508  -0.54048  -0.50454  -0.50397
 Alpha  occ. eigenvalues --   -0.49270
 Alpha virt. eigenvalues --   -0.15671  -0.11951  -0.11760  -0.09807  -0.01680
 Alpha virt. eigenvalues --   -0.00873   0.00383   0.02149   0.02211   0.03855
 Alpha virt. eigenvalues --    0.03898   0.04710   0.05184   0.05328   0.05386

  Beta  occ. eigenvalues --  -10.22735 -10.22720 -10.20294 -10.20294 -10.20108
  Beta  occ. eigenvalues --  -10.20107 -10.20105 -10.20104 -10.19085 -10.19085
  Beta  occ. eigenvalues --  -10.19083 -10.19083  -1.10979  -1.08416  -1.01720
  Beta  occ. eigenvalues --   -0.98586  -0.97738  -0.95868  -0.86376  -0.85958
  Beta  occ. eigenvalues --   -0.83002  -0.81599  -0.77591  -0.73863  -0.71100
  Beta  occ. eigenvalues --   -0.70419  -0.68515  -0.67338  -0.66325  -0.66156
  Beta  occ. eigenvalues --   -0.65427  -0.63104  -0.60348  -0.60248  -0.58734
  Beta  occ. eigenvalues --   -0.57744  -0.57240  -0.50102  -0.50095  -0.50043
  Beta virt. eigenvalues --   -0.30458  -0.13500  -0.11212  -0.10672  -0.07789
  Beta virt. eigenvalues --   -0.01604  -0.00776   0.00464   0.02333   0.02580
  Beta virt. eigenvalues --    0.04071   0.04220   0.04775   0.05508   0.05671

 Mulliken charges and spin densities:
               1          2
     1  C   -0.086259  -0.081100
     2  C   -0.052195   0.295411
     3  C   -0.095841   0.127624
     4  C   -0.086282  -0.081138
     5  C    0.017429   0.134416
     6  C   -0.095870   0.127660
     7  H    0.180259  -0.013700
     8  H    0.187586  -0.007457
     9  H    0.171783   0.002871
    10  H    0.187603  -0.007456
    11  C    0.017407   0.134407
    12  C   -0.095833   0.127681
    13  C   -0.095858   0.127606
    14  C   -0.086285  -0.081132
    15  C   -0.086271  -0.081109
    16  C   -0.052186   0.295411
    17  H    0.187589  -0.007460
    18  H    0.187605  -0.007453
    19  H    0.171786   0.002874
    20  H    0.171783   0.002871
    21  H    0.180260  -0.013699
    22  H    0.171789   0.002875
 Sum of Mulliken charges =   1.00000   1.00000

 Dipole moment (field-independent basis, Debye):
    X=             -0.0000    Y=              0.0001    Z=              0.0003  Tot=              0.0003
 Quadrupole moment (field-independent basis, Debye-Ang):
   XX=            -18.4999   YY=            -52.3822   ZZ=            -69.4018
   XY=              0.0007   XZ=              0.0005   YZ=             -0.0002

 Normal termination of Gaussian 16 at Sun Jan 17 10:11:56 2021.
