 Gaussian 16, Revision A.03,
 Gaussian 16:  EM64L-G16RevA.03 25-Dec-2016

 ----------------------------------------------------------------------
 #P LC-wHPBE/TZVP iop(3/107=0237800000, 3/108=0237800000) scf=(conver=6
 ,fermi,ndamp=35,noincfock,novaracc,vshift=500,xqc)
 ----------------------------------------------------------------------

 -------
 H10 C12
 -------
 Symbolic Z-matrix:
 Charge =  1 Multiplicity = 2

                         Standard orientation:
 ---------------------------------------------------------------------
 Center     Atomic      Atomic             Coordinates (Angstroms)
 Number     Number       Type             X           Y           Z
 ---------------------------------------------------------------------
      1          6           0       -2.858500   -1.132993   -0.413690
      2          6           0       -3.561927    0.000084    0.000146
      3          6           0       -1.463685   -1.132747   -0.413534
      4          6           0       -2.858269    1.133176    0.413741
      5          6           0       -0.742381   -0.000123   -0.000091
      6          6           0       -1.463491    1.132675    0.413489
      7          1           0       -4.653174    0.000160    0.000261
      8          1           0       -0.922222   -2.014213   -0.762301
      9          1           0       -3.398792    2.020986    0.747134
     10          1           0       -0.921754    2.014027    0.762095
     11          6           0        0.742385   -0.000142   -0.000197
     12          6           0        1.463539    1.132637   -0.413582
     13          6           0        1.463636   -1.132765    0.413477
     14          6           0        2.858357    1.133114   -0.413660
     15          6           0        2.858412   -1.133073    0.413706
     16          6           0        3.561931    0.000095    0.000087
     17          1           0        0.921935    2.014039   -0.762261
     18          1           0        0.922017   -2.014128    0.762265
     19          1           0        3.398826    2.021000   -0.746938
     20          1           0        3.399026   -2.020805    0.747168
     21          1           0        4.653184    0.000117    0.000198
     22          1           0       -3.399078   -2.020813   -0.746974
 ---------------------------------------------------------------------

 SCF Done:  E(ULC-wHPBE) =  -462.719387644     A.U. after   17 cycles

 The electronic state is 2-A.
 Alpha  occ. eigenvalues --  -10.23071 -10.23058 -10.20790 -10.20790 -10.20411
 Alpha  occ. eigenvalues --  -10.20411 -10.20410 -10.20408 -10.19140 -10.19140
 Alpha  occ. eigenvalues --  -10.19138 -10.19138  -1.11678  -1.09037  -1.02461
 Alpha  occ. eigenvalues --   -0.98929  -0.98023  -0.97042  -0.86921  -0.86318
 Alpha  occ. eigenvalues --   -0.83478  -0.82020  -0.77848  -0.74222  -0.71415
 Alpha  occ. eigenvalues --   -0.70704  -0.69146  -0.67603  -0.66690  -0.66328
 Alpha  occ. eigenvalues --   -0.65723  -0.64221  -0.62479  -0.60505  -0.58971
 Alpha  occ. eigenvalues --   -0.57931  -0.57591  -0.54117  -0.50515  -0.50457
 Alpha  occ. eigenvalues --   -0.49332
 Alpha virt. eigenvalues --   -0.15634  -0.11903  -0.11712  -0.09757  -0.01635
 Alpha virt. eigenvalues --   -0.00825   0.00428   0.02215   0.02254   0.03901
 Alpha virt. eigenvalues --    0.03954   0.04760   0.05258   0.05374   0.05431

  Beta  occ. eigenvalues --  -10.22875 -10.22860 -10.20431 -10.20431 -10.20245
  Beta  occ. eigenvalues --  -10.20245 -10.20243 -10.20242 -10.19219 -10.19219
  Beta  occ. eigenvalues --  -10.19217 -10.19217  -1.11124  -1.08558  -1.01855
  Beta  occ. eigenvalues --   -0.98721  -0.97872  -0.95995  -0.86495  -0.86078
  Beta  occ. eigenvalues --   -0.83118  -0.81713  -0.77703  -0.73969  -0.71200
  Beta  occ. eigenvalues --   -0.70521  -0.68611  -0.67435  -0.66421  -0.66252
  Beta  occ. eigenvalues --   -0.65522  -0.63195  -0.60425  -0.60335  -0.58819
  Beta  occ. eigenvalues --   -0.57827  -0.57323  -0.50164  -0.50137  -0.50104
  Beta virt. eigenvalues --   -0.30431  -0.13453  -0.11159  -0.10615  -0.07726
  Beta virt. eigenvalues --   -0.01558  -0.00728   0.00509   0.02377   0.02638
  Beta virt. eigenvalues --    0.04118   0.04279   0.04822   0.05552   0.05716

 Mulliken charges and spin densities:
               1          2
     1  C   -0.086625  -0.082226
     2  C   -0.052341   0.296497
     3  C   -0.096116   0.128455
     4  C   -0.086649  -0.082264
     5  C    0.017390   0.133948
     6  C   -0.096144   0.128492
     7  H    0.180532  -0.013738
     8  H    0.187905  -0.007496
     9  H    0.172061   0.002914
    10  H    0.187923  -0.007496
    11  C    0.017368   0.133939
    12  C   -0.096108   0.128512
    13  C   -0.096133   0.128438
    14  C   -0.086652  -0.082258
    15  C   -0.086638  -0.082234
    16  C   -0.052332   0.296496
    17  H    0.187908  -0.007500
    18  H    0.187924  -0.007493
    19  H    0.172064   0.002917
    20  H    0.172062   0.002915
    21  H    0.180533  -0.013737
    22  H    0.172067   0.002918
 Sum of Mulliken charges =   1.00000   1.00000

 Dipole moment (field-independent basis, Debye):
    X=             -0.0000    Y=              0.0001    Z=              0.0003  Tot=              0.0003
 Quadrupole moment (field-independent basis, Debye-Ang):
   XX=            -18.4950   YY=            -52.3758   ZZ=            -69.4015
   XY=              0.0007   XZ=              0.0005   YZ=             -0.0002

 Normal termination of Gaussian 16 at Sun Jan 17 09:53:43 2021.
