 Gaussian 16, Revision A.03,
 Gaussian 16:  EM64L-G16RevA.03 25-Dec-2016

 ----------------------------------------------------------------------
 #P LC-wHPBE/TZVP iop(3/107=0230600000, 3/108=0230600000) scf=(conver=6
 ,fermi,ndamp=35,noincfock,novaracc,vshift=500,xqc)
 ----------------------------------------------------------------------

 -------
 H10 C12
 -------
 Symbolic Z-matrix:
 Charge =  0 Multiplicity = 1

                         Standard orientation:
 ---------------------------------------------------------------------
 Center     Atomic      Atomic             Coordinates (Angstroms)
 Number     Number       Type             X           Y           Z
 ---------------------------------------------------------------------
      1          6           0       -2.858500   -1.132993   -0.413690
      2          6           0       -3.561927    0.000084    0.000146
      3          6           0       -1.463685   -1.132747   -0.413534
      4          6           0       -2.858269    1.133176    0.413741
      5          6           0       -0.742381   -0.000123   -0.000091
      6          6           0       -1.463491    1.132675    0.413489
      7          1           0       -4.653174    0.000160    0.000261
      8          1           0       -0.922222   -2.014213   -0.762301
      9          1           0       -3.398792    2.020986    0.747134
     10          1           0       -0.921754    2.014027    0.762095
     11          6           0        0.742385   -0.000142   -0.000197
     12          6           0        1.463539    1.132637   -0.413582
     13          6           0        1.463636   -1.132765    0.413477
     14          6           0        2.858357    1.133114   -0.413660
     15          6           0        2.858412   -1.133073    0.413706
     16          6           0        3.561931    0.000095    0.000087
     17          1           0        0.921935    2.014039   -0.762261
     18          1           0        0.922017   -2.014128    0.762265
     19          1           0        3.398826    2.021000   -0.746938
     20          1           0        3.399026   -2.020805    0.747168
     21          1           0        4.653184    0.000117    0.000198
     22          1           0       -3.399078   -2.020813   -0.746974
 ---------------------------------------------------------------------

 SCF Done:  E(RLC-wHPBE) =  -463.020421003     A.U. after   11 cycles

 The electronic state is 1-A.
 Alpha  occ. eigenvalues --  -10.03227 -10.03214 -10.02116 -10.02115 -10.02113
 Alpha  occ. eigenvalues --  -10.02113 -10.02055 -10.02054 -10.02053 -10.02053
 Alpha  occ. eigenvalues --  -10.02011 -10.02011  -0.92959  -0.90806  -0.84083
 Alpha  occ. eigenvalues --   -0.81377  -0.80625  -0.78470  -0.69214  -0.68690
 Alpha  occ. eigenvalues --   -0.65906  -0.64659  -0.60655  -0.57119  -0.53947
 Alpha  occ. eigenvalues --   -0.53645  -0.51047  -0.51021  -0.49483  -0.49094
 Alpha  occ. eigenvalues --   -0.48802  -0.46116  -0.44521  -0.43519  -0.42060
 Alpha  occ. eigenvalues --   -0.40616  -0.40422  -0.35662  -0.33354  -0.33307
 Alpha  occ. eigenvalues --   -0.30398
 Alpha virt. eigenvalues --    0.02158   0.04615   0.04856   0.07819   0.11752
 Alpha virt. eigenvalues --    0.12288   0.13905   0.15199   0.15717   0.17236
 Alpha virt. eigenvalues --    0.17531   0.18388   0.18747   0.19321   0.21475

 Mulliken charges:
               1
     1  C   -0.097651
     2  C   -0.126587
     3  C   -0.139895
     4  C   -0.097676
     5  C    0.000144
     6  C   -0.139927
     7  H    0.111721
     8  H    0.135337
     9  H    0.109585
    10  H    0.135361
    11  C    0.000128
    12  C   -0.139884
    13  C   -0.139912
    14  C   -0.097681
    15  C   -0.097664
    16  C   -0.126578
    17  H    0.135346
    18  H    0.135358
    19  H    0.109584
    20  H    0.109584
    21  H    0.111722
    22  H    0.109585
 Sum of Mulliken charges =  -0.00000

 Dipole moment (field-independent basis, Debye):
    X=             -0.0000    Y=              0.0001    Z=              0.0003  Tot=              0.0003
 Quadrupole moment (field-independent basis, Debye-Ang):
   XX=            -61.8052   YY=            -63.4757   ZZ=            -75.1834
   XY=              0.0005   XZ=              0.0005   YZ=             -0.0002

 Normal termination of Gaussian 16 at Sun Jan 17 09:58:32 2021.
