 Gaussian 16, Revision A.03,
 Gaussian 16:  EM64L-G16RevA.03 25-Dec-2016

 ----------------------------------------------------------------------
 #P LC-wHPBE/TZVP iop(3/107=0236000000, 3/108=0236000000) scf=(conver=6
 ,fermi,ndamp=35,noincfock,novaracc,vshift=500,xqc)
 ----------------------------------------------------------------------

 -------
 H10 C12
 -------
 Symbolic Z-matrix:
 Charge =  0 Multiplicity = 1

                         Standard orientation:
 ---------------------------------------------------------------------
 Center     Atomic      Atomic             Coordinates (Angstroms)
 Number     Number       Type             X           Y           Z
 ---------------------------------------------------------------------
      1          6           0       -2.858500   -1.132993   -0.413690
      2          6           0       -3.561927    0.000084    0.000146
      3          6           0       -1.463685   -1.132747   -0.413534
      4          6           0       -2.858269    1.133176    0.413741
      5          6           0       -0.742381   -0.000123   -0.000091
      6          6           0       -1.463491    1.132675    0.413489
      7          1           0       -4.653174    0.000160    0.000261
      8          1           0       -0.922222   -2.014213   -0.762301
      9          1           0       -3.398792    2.020986    0.747134
     10          1           0       -0.921754    2.014027    0.762095
     11          6           0        0.742385   -0.000142   -0.000197
     12          6           0        1.463539    1.132637   -0.413582
     13          6           0        1.463636   -1.132765    0.413477
     14          6           0        2.858357    1.133114   -0.413660
     15          6           0        2.858412   -1.133073    0.413706
     16          6           0        3.561931    0.000095    0.000087
     17          1           0        0.921935    2.014039   -0.762261
     18          1           0        0.922017   -2.014128    0.762265
     19          1           0        3.398826    2.021000   -0.746938
     20          1           0        3.399026   -2.020805    0.747168
     21          1           0        4.653184    0.000117    0.000198
     22          1           0       -3.399078   -2.020813   -0.746974
 ---------------------------------------------------------------------

 SCF Done:  E(RLC-wHPBE) =  -463.023588327     A.U. after   11 cycles

 The electronic state is 1-A.
 Alpha  occ. eigenvalues --  -10.03532 -10.03519 -10.02420 -10.02419 -10.02417
 Alpha  occ. eigenvalues --  -10.02417 -10.02359 -10.02358 -10.02357 -10.02357
 Alpha  occ. eigenvalues --  -10.02315 -10.02315  -0.93283  -0.91125  -0.84389
 Alpha  occ. eigenvalues --   -0.81678  -0.80923  -0.78762  -0.69482  -0.68959
 Alpha  occ. eigenvalues --   -0.66165  -0.64915  -0.60904  -0.57355  -0.54175
 Alpha  occ. eigenvalues --   -0.53869  -0.51266  -0.51240  -0.49698  -0.49305
 Alpha  occ. eigenvalues --   -0.49015  -0.46338  -0.44737  -0.43714  -0.42251
 Alpha  occ. eigenvalues --   -0.40801  -0.40607  -0.35810  -0.33493  -0.33443
 Alpha  occ. eigenvalues --   -0.30520
 Alpha virt. eigenvalues --    0.02250   0.04719   0.04960   0.07933   0.11853
 Alpha virt. eigenvalues --    0.12391   0.14003   0.15294   0.15816   0.17335
 Alpha virt. eigenvalues --    0.17627   0.18480   0.18884   0.19418   0.21615

 Mulliken charges:
               1
     1  C   -0.098202
     2  C   -0.127486
     3  C   -0.140775
     4  C   -0.098227
     5  C    0.000087
     6  C   -0.140808
     7  H    0.112445
     8  H    0.136151
     9  H    0.110319
    10  H    0.136175
    11  C    0.000071
    12  C   -0.140765
    13  C   -0.140792
    14  C   -0.098233
    15  C   -0.098215
    16  C   -0.127477
    17  H    0.136160
    18  H    0.136172
    19  H    0.110318
    20  H    0.110318
    21  H    0.112445
    22  H    0.110319
 Sum of Mulliken charges =  -0.00000

 Dipole moment (field-independent basis, Debye):
    X=             -0.0000    Y=              0.0001    Z=              0.0003  Tot=              0.0003
 Quadrupole moment (field-independent basis, Debye-Ang):
   XX=            -61.7812   YY=            -63.4516   ZZ=            -75.1794
   XY=              0.0005   XZ=              0.0005   YZ=             -0.0002

 Normal termination of Gaussian 16 at Sun Jan 17 09:54:54 2021.
