 Gaussian 16, Revision A.03,
 Gaussian 16:  EM64L-G16RevA.03 25-Dec-2016

 ----------------------------------------------------------------------
 #P LC-wHPBE/TZVP iop(3/107=0235000000, 3/108=0235000000) scf=(conver=6
 ,fermi,ndamp=35,noincfock,novaracc,vshift=500,xqc)
 ----------------------------------------------------------------------

 -------
 H10 C12
 -------
 Symbolic Z-matrix:
 Charge =  0 Multiplicity = 1

                         Standard orientation:
 ---------------------------------------------------------------------
 Center     Atomic      Atomic             Coordinates (Angstroms)
 Number     Number       Type             X           Y           Z
 ---------------------------------------------------------------------
      1          6           0       -2.858500   -1.132993   -0.413690
      2          6           0       -3.561927    0.000084    0.000146
      3          6           0       -1.463685   -1.132747   -0.413534
      4          6           0       -2.858269    1.133176    0.413741
      5          6           0       -0.742381   -0.000123   -0.000091
      6          6           0       -1.463491    1.132675    0.413489
      7          1           0       -4.653174    0.000160    0.000261
      8          1           0       -0.922222   -2.014213   -0.762301
      9          1           0       -3.398792    2.020986    0.747134
     10          1           0       -0.921754    2.014027    0.762095
     11          6           0        0.742385   -0.000142   -0.000197
     12          6           0        1.463539    1.132637   -0.413582
     13          6           0        1.463636   -1.132765    0.413477
     14          6           0        2.858357    1.133114   -0.413660
     15          6           0        2.858412   -1.133073    0.413706
     16          6           0        3.561931    0.000095    0.000087
     17          1           0        0.921935    2.014039   -0.762261
     18          1           0        0.922017   -2.014128    0.762265
     19          1           0        3.398826    2.021000   -0.746938
     20          1           0        3.399026   -2.020805    0.747168
     21          1           0        4.653184    0.000117    0.000198
     22          1           0       -3.399078   -2.020813   -0.746974
 ---------------------------------------------------------------------

 SCF Done:  E(RLC-wHPBE) =  -463.023006270     A.U. after   11 cycles

 The electronic state is 1-A.
 Alpha  occ. eigenvalues --  -10.03476 -10.03463 -10.02364 -10.02363 -10.02360
 Alpha  occ. eigenvalues --  -10.02360 -10.02303 -10.02302 -10.02301 -10.02301
 Alpha  occ. eigenvalues --  -10.02258 -10.02258  -0.93223  -0.91066  -0.84332
 Alpha  occ. eigenvalues --   -0.81622  -0.80868  -0.78708  -0.69432  -0.68909
 Alpha  occ. eigenvalues --   -0.66117  -0.64868  -0.60858  -0.57312  -0.54133
 Alpha  occ. eigenvalues --   -0.53828  -0.51226  -0.51199  -0.49658  -0.49266
 Alpha  occ. eigenvalues --   -0.48976  -0.46297  -0.44697  -0.43678  -0.42216
 Alpha  occ. eigenvalues --   -0.40767  -0.40573  -0.35783  -0.33467  -0.33418
 Alpha  occ. eigenvalues --   -0.30497
 Alpha virt. eigenvalues --    0.02233   0.04700   0.04941   0.07912   0.11835
 Alpha virt. eigenvalues --    0.12372   0.13985   0.15277   0.15798   0.17317
 Alpha virt. eigenvalues --    0.17610   0.18463   0.18859   0.19401   0.21590

 Mulliken charges:
               1
     1  C   -0.098099
     2  C   -0.127318
     3  C   -0.140611
     4  C   -0.098123
     5  C    0.000099
     6  C   -0.140644
     7  H    0.112309
     8  H    0.135999
     9  H    0.110181
    10  H    0.136023
    11  C    0.000083
    12  C   -0.140601
    13  C   -0.140628
    14  C   -0.098129
    15  C   -0.098112
    16  C   -0.127309
    17  H    0.136008
    18  H    0.136019
    19  H    0.110181
    20  H    0.110180
    21  H    0.112310
    22  H    0.110181
 Sum of Mulliken charges =  -0.00000

 Dipole moment (field-independent basis, Debye):
    X=             -0.0000    Y=              0.0001    Z=              0.0003  Tot=              0.0003
 Quadrupole moment (field-independent basis, Debye-Ang):
   XX=            -61.7857   YY=            -63.4561   ZZ=            -75.1801
   XY=              0.0005   XZ=              0.0005   YZ=             -0.0002

 Normal termination of Gaussian 16 at Sun Jan 17 10:02:11 2021.
