 Gaussian 16, Revision A.03,
 Gaussian 16:  EM64L-G16RevA.03 25-Dec-2016

 ----------------------------------------------------------------------
 #P LC-wHPBE/TZVP iop(3/107=0328100000, 3/108=0328100000) scf=(conver=6
 ,fermi,ndamp=35,noincfock,novaracc,vshift=500,xqc)
 ----------------------------------------------------------------------

 -------
 H10 C12
 -------
 Symbolic Z-matrix:
 Charge =  0 Multiplicity = 1

                         Standard orientation:
 ---------------------------------------------------------------------
 Center     Atomic      Atomic             Coordinates (Angstroms)
 Number     Number       Type             X           Y           Z
 ---------------------------------------------------------------------
      1          6           0       -2.858500   -1.132993   -0.413690
      2          6           0       -3.561927    0.000084    0.000146
      3          6           0       -1.463685   -1.132747   -0.413534
      4          6           0       -2.858269    1.133176    0.413741
      5          6           0       -0.742381   -0.000123   -0.000091
      6          6           0       -1.463491    1.132675    0.413489
      7          1           0       -4.653174    0.000160    0.000261
      8          1           0       -0.922222   -2.014213   -0.762301
      9          1           0       -3.398792    2.020986    0.747134
     10          1           0       -0.921754    2.014027    0.762095
     11          6           0        0.742385   -0.000142   -0.000197
     12          6           0        1.463539    1.132637   -0.413582
     13          6           0        1.463636   -1.132765    0.413477
     14          6           0        2.858357    1.133114   -0.413660
     15          6           0        2.858412   -1.133073    0.413706
     16          6           0        3.561931    0.000095    0.000087
     17          1           0        0.921935    2.014039   -0.762261
     18          1           0        0.922017   -2.014128    0.762265
     19          1           0        3.398826    2.021000   -0.746938
     20          1           0        3.399026   -2.020805    0.747168
     21          1           0        4.653184    0.000117    0.000198
     22          1           0       -3.399078   -2.020813   -0.746974
 ---------------------------------------------------------------------

 SCF Done:  E(RLC-wHPBE) =  -463.067084166     A.U. after   12 cycles

 The electronic state is 1-A.
 Alpha  occ. eigenvalues --  -10.08749 -10.08735 -10.07611 -10.07610 -10.07608
 Alpha  occ. eigenvalues --  -10.07608 -10.07550 -10.07549 -10.07547 -10.07547
 Alpha  occ. eigenvalues --  -10.07497 -10.07497  -0.98660  -0.96398  -0.89369
 Alpha  occ. eigenvalues --   -0.86554  -0.85746  -0.83456  -0.73694  -0.73167
 Alpha  occ. eigenvalues --   -0.70214  -0.68886  -0.64671  -0.60939  -0.57632
 Alpha  occ. eigenvalues --   -0.57261  -0.54567  -0.54528  -0.52926  -0.52483
 Alpha  occ. eigenvalues --   -0.52207  -0.49530  -0.47809  -0.46621  -0.45087
 Alpha  occ. eigenvalues --   -0.43549  -0.43350  -0.37813  -0.35341  -0.35280
 Alpha  occ. eigenvalues --   -0.32138
 Alpha virt. eigenvalues --    0.03370   0.05983   0.06243   0.09363   0.13104
 Alpha virt. eigenvalues --    0.13664   0.15193   0.16444   0.17014   0.18546
 Alpha virt. eigenvalues --    0.18798   0.19596   0.20554   0.20600   0.23296

 Mulliken charges:
               1
     1  C   -0.109855
     2  C   -0.143798
     3  C   -0.156799
     4  C   -0.109873
     5  C   -0.002880
     6  C   -0.156838
     7  H    0.126744
     8  H    0.151821
     9  H    0.124815
    10  H    0.151845
    11  C   -0.002891
    12  C   -0.156800
    13  C   -0.156817
    14  C   -0.109877
    15  C   -0.109865
    16  C   -0.143791
    17  H    0.151829
    18  H    0.151841
    19  H    0.124815
    20  H    0.124814
    21  H    0.126744
    22  H    0.124816
 Sum of Mulliken charges =  -0.00000

 Dipole moment (field-independent basis, Debye):
    X=             -0.0000    Y=              0.0001    Z=              0.0003  Tot=              0.0003
 Quadrupole moment (field-independent basis, Debye-Ang):
   XX=            -61.3344   YY=            -63.0297   ZZ=            -75.1515
   XY=              0.0005   XZ=              0.0006   YZ=             -0.0002

 Normal termination of Gaussian 16 at Sun Jan 17 09:40:24 2021.
