 Gaussian 16, Revision A.03,
 Gaussian 16:  EM64L-G16RevA.03 25-Dec-2016

 ----------------------------------------------------------------------
 #P LC-wHPBE/TZVP iop(3/107=0237800000, 3/108=0237800000) scf=(conver=6
 ,fermi,ndamp=35,noincfock,novaracc,vshift=500,xqc)
 ----------------------------------------------------------------------

 -------
 H10 C12
 -------
 Symbolic Z-matrix:
 Charge =  0 Multiplicity = 1

                         Standard orientation:
 ---------------------------------------------------------------------
 Center     Atomic      Atomic             Coordinates (Angstroms)
 Number     Number       Type             X           Y           Z
 ---------------------------------------------------------------------
      1          6           0       -2.858500   -1.132993   -0.413690
      2          6           0       -3.561927    0.000084    0.000146
      3          6           0       -1.463685   -1.132747   -0.413534
      4          6           0       -2.858269    1.133176    0.413741
      5          6           0       -0.742381   -0.000123   -0.000091
      6          6           0       -1.463491    1.132675    0.413489
      7          1           0       -4.653174    0.000160    0.000261
      8          1           0       -0.922222   -2.014213   -0.762301
      9          1           0       -3.398792    2.020986    0.747134
     10          1           0       -0.921754    2.014027    0.762095
     11          6           0        0.742385   -0.000142   -0.000197
     12          6           0        1.463539    1.132637   -0.413582
     13          6           0        1.463636   -1.132765    0.413477
     14          6           0        2.858357    1.133114   -0.413660
     15          6           0        2.858412   -1.133073    0.413706
     16          6           0        3.561931    0.000095    0.000087
     17          1           0        0.921935    2.014039   -0.762261
     18          1           0        0.922017   -2.014128    0.762265
     19          1           0        3.398826    2.021000   -0.746938
     20          1           0        3.399026   -2.020805    0.747168
     21          1           0        4.653184    0.000117    0.000198
     22          1           0       -3.399078   -2.020813   -0.746974
 ---------------------------------------------------------------------

 SCF Done:  E(RLC-wHPBE) =  -463.024630808     A.U. after   11 cycles

 The electronic state is 1-A.
 Alpha  occ. eigenvalues --  -10.03634 -10.03621 -10.02522 -10.02521 -10.02518
 Alpha  occ. eigenvalues --  -10.02518 -10.02460 -10.02459 -10.02459 -10.02458
 Alpha  occ. eigenvalues --  -10.02416 -10.02416  -0.93391  -0.91231  -0.84491
 Alpha  occ. eigenvalues --   -0.81778  -0.81022  -0.78859  -0.69571  -0.69048
 Alpha  occ. eigenvalues --   -0.66251  -0.65000  -0.60986  -0.57434  -0.54251
 Alpha  occ. eigenvalues --   -0.53944  -0.51338  -0.51312  -0.49769  -0.49375
 Alpha  occ. eigenvalues --   -0.49085  -0.46411  -0.44808  -0.43778  -0.42314
 Alpha  occ. eigenvalues --   -0.40862  -0.40668  -0.35858  -0.33538  -0.33488
 Alpha  occ. eigenvalues --   -0.30559
 Alpha virt. eigenvalues --    0.02280   0.04753   0.04994   0.07970   0.11886
 Alpha virt. eigenvalues --    0.12424   0.14035   0.15325   0.15849   0.17368
 Alpha virt. eigenvalues --    0.17659   0.18510   0.18928   0.19450   0.21661

 Mulliken charges:
               1
     1  C   -0.098391
     2  C   -0.127790
     3  C   -0.141072
     4  C   -0.098416
     5  C    0.000064
     6  C   -0.141105
     7  H    0.112691
     8  H    0.136427
     9  H    0.110569
    10  H    0.136451
    11  C    0.000048
    12  C   -0.141062
    13  C   -0.141089
    14  C   -0.098422
    15  C   -0.098404
    16  C   -0.127781
    17  H    0.136436
    18  H    0.136447
    19  H    0.110568
    20  H    0.110568
    21  H    0.112691
    22  H    0.110569
 Sum of Mulliken charges =  -0.00000

 Dipole moment (field-independent basis, Debye):
    X=             -0.0000    Y=              0.0001    Z=              0.0003  Tot=              0.0003
 Quadrupole moment (field-independent basis, Debye-Ang):
   XX=            -61.7731   YY=            -63.4435   ZZ=            -75.1781
   XY=              0.0005   XZ=              0.0005   YZ=             -0.0002

 Normal termination of Gaussian 16 at Sun Jan 17 09:51:17 2021.
