 Gaussian 16, Revision A.03,
 Gaussian 16:  EM64L-G16RevA.03 25-Dec-2016

 ----------------------------------------------------------------------
 #P LC-wHPBE/TZVP iop(3/107=0156200000, 3/108=0156200000) scf=(conver=6
 ,fermi,ndamp=35,noincfock,novaracc,vshift=500,xqc)
 ----------------------------------------------------------------------

 -------
 H10 C12
 -------
 Symbolic Z-matrix:
 Charge =  1 Multiplicity = 2

                         Standard orientation:
 ---------------------------------------------------------------------
 Center     Atomic      Atomic             Coordinates (Angstroms)
 Number     Number       Type             X           Y           Z
 ---------------------------------------------------------------------
      1          6           0       -2.858500   -1.132993   -0.413690
      2          6           0       -3.561927    0.000084    0.000146
      3          6           0       -1.463685   -1.132747   -0.413534
      4          6           0       -2.858269    1.133176    0.413741
      5          6           0       -0.742381   -0.000123   -0.000091
      6          6           0       -1.463491    1.132675    0.413489
      7          1           0       -4.653174    0.000160    0.000261
      8          1           0       -0.922222   -2.014213   -0.762301
      9          1           0       -3.398792    2.020986    0.747134
     10          1           0       -0.921754    2.014027    0.762095
     11          6           0        0.742385   -0.000142   -0.000197
     12          6           0        1.463539    1.132637   -0.413582
     13          6           0        1.463636   -1.132765    0.413477
     14          6           0        2.858357    1.133114   -0.413660
     15          6           0        2.858412   -1.133073    0.413706
     16          6           0        3.561931    0.000095    0.000087
     17          1           0        0.921935    2.014039   -0.762261
     18          1           0        0.922017   -2.014128    0.762265
     19          1           0        3.398826    2.021000   -0.746938
     20          1           0        3.399026   -2.020805    0.747168
     21          1           0        4.653184    0.000117    0.000198
     22          1           0       -3.399078   -2.020813   -0.746974
 ---------------------------------------------------------------------

 SCF Done:  E(ULC-wHPBE) =  -462.672412277     A.U. after   16 cycles

 The electronic state is 2-A.
 Alpha  occ. eigenvalues --  -10.18326 -10.18313 -10.16123 -10.16123 -10.15686
 Alpha  occ. eigenvalues --  -10.15685 -10.15685 -10.15683 -10.14616 -10.14616
 Alpha  occ. eigenvalues --  -10.14615 -10.14614  -1.06686  -1.04129  -0.97713
 Alpha  occ. eigenvalues --   -0.94231  -0.93382  -0.92398  -0.82622  -0.82010
 Alpha  occ. eigenvalues --   -0.79291  -0.77878  -0.73739  -0.70273  -0.67686
 Alpha  occ. eigenvalues --   -0.66924  -0.65452  -0.63957  -0.63107  -0.62730
 Alpha  occ. eigenvalues --   -0.62105  -0.60461  -0.58730  -0.57195  -0.55727
 Alpha  occ. eigenvalues --   -0.54776  -0.54418  -0.51311  -0.47966  -0.47945
 Alpha  occ. eigenvalues --   -0.46852
 Alpha virt. eigenvalues --   -0.17375  -0.14018  -0.13822  -0.11950  -0.03648
 Alpha virt. eigenvalues --   -0.02921  -0.01580  -0.00609   0.00305   0.01703
 Alpha virt. eigenvalues --    0.01861   0.02075   0.02825   0.03348   0.03418

  Beta  occ. eigenvalues --  -10.18117 -10.18103 -10.15791 -10.15791 -10.15548
  Beta  occ. eigenvalues --  -10.15547 -10.15546 -10.15545 -10.14660 -10.14660
  Beta  occ. eigenvalues --  -10.14659 -10.14658  -1.06156  -1.03688  -0.97139
  Beta  occ. eigenvalues --   -0.94028  -0.93221  -0.91534  -0.82227  -0.81760
  Beta  occ. eigenvalues --   -0.78961  -0.77570  -0.73599  -0.70053  -0.67474
  Beta  occ. eigenvalues --   -0.66734  -0.65014  -0.63787  -0.62853  -0.62660
  Beta  occ. eigenvalues --   -0.61961  -0.59569  -0.57368  -0.57037  -0.55576
  Beta  occ. eigenvalues --   -0.54666  -0.54166  -0.48403  -0.47581  -0.47547
  Beta virt. eigenvalues --   -0.31649  -0.15539  -0.13437  -0.13023  -0.10343
  Beta virt. eigenvalues --   -0.03574  -0.02826  -0.01489   0.00040   0.00430
  Beta virt. eigenvalues --    0.01878   0.02058   0.02690   0.03177   0.03555

 Mulliken charges and spin densities:
               1          2
     1  C   -0.076727  -0.048731
     2  C   -0.048437   0.267504
     3  C   -0.089151   0.102751
     4  C   -0.076764  -0.048776
     5  C    0.016866   0.146444
     6  C   -0.089164   0.102793
     7  H    0.173814  -0.012688
     8  H    0.179520  -0.006233
     9  H    0.165252   0.001586
    10  H    0.179535  -0.006235
    11  C    0.016844   0.146438
    12  C   -0.089127   0.102806
    13  C   -0.089159   0.102740
    14  C   -0.076764  -0.048766
    15  C   -0.076747  -0.048744
    16  C   -0.048430   0.267504
    17  H    0.179522  -0.006237
    18  H    0.179538  -0.006232
    19  H    0.165254   0.001588
    20  H    0.165253   0.001586
    21  H    0.173814  -0.012687
    22  H    0.165257   0.001589
 Sum of Mulliken charges =   1.00000   1.00000

 Dipole moment (field-independent basis, Debye):
    X=             -0.0001    Y=              0.0001    Z=              0.0003  Tot=              0.0003
 Quadrupole moment (field-independent basis, Debye-Ang):
   XX=            -18.5562   YY=            -52.5817   ZZ=            -69.4339
   XY=              0.0007   XZ=              0.0005   YZ=             -0.0002

 Normal termination of Gaussian 16 at Sun Jan 17 09:46:26 2021.
