 Gaussian 16, Revision A.03,
 Gaussian 16:  EM64L-G16RevA.03 25-Dec-2016

 ----------------------------------------------------------------------
 #P LC-wHPBE/TZVP iop(3/107=0235700000, 3/108=0235700000) scf=(conver=6
 ,fermi,ndamp=35,noincfock,novaracc,vshift=500,xqc)
 ----------------------------------------------------------------------

 -------
 H10 C12
 -------
 Symbolic Z-matrix:
 Charge =  1 Multiplicity = 2

                         Standard orientation:
 ---------------------------------------------------------------------
 Center     Atomic      Atomic             Coordinates (Angstroms)
 Number     Number       Type             X           Y           Z
 ---------------------------------------------------------------------
      1          6           0       -2.858500   -1.132993   -0.413690
      2          6           0       -3.561927    0.000084    0.000146
      3          6           0       -1.463685   -1.132747   -0.413534
      4          6           0       -2.858269    1.133176    0.413741
      5          6           0       -0.742381   -0.000123   -0.000091
      6          6           0       -1.463491    1.132675    0.413489
      7          1           0       -4.653174    0.000160    0.000261
      8          1           0       -0.922222   -2.014213   -0.762301
      9          1           0       -3.398792    2.020986    0.747134
     10          1           0       -0.921754    2.014027    0.762095
     11          6           0        0.742385   -0.000142   -0.000197
     12          6           0        1.463539    1.132637   -0.413582
     13          6           0        1.463636   -1.132765    0.413477
     14          6           0        2.858357    1.133114   -0.413660
     15          6           0        2.858412   -1.133073    0.413706
     16          6           0        3.561931    0.000095    0.000087
     17          1           0        0.921935    2.014039   -0.762261
     18          1           0        0.922017   -2.014128    0.762265
     19          1           0        3.398826    2.021000   -0.746938
     20          1           0        3.399026   -2.020805    0.747168
     21          1           0        4.653184    0.000117    0.000198
     22          1           0       -3.399078   -2.020813   -0.746974
 ---------------------------------------------------------------------

 SCF Done:  E(ULC-wHPBE) =  -462.718290752     A.U. after   17 cycles

 The electronic state is 2-A.
 Alpha  occ. eigenvalues --  -10.22949 -10.22936 -10.20670 -10.20669 -10.20290
 Alpha  occ. eigenvalues --  -10.20290 -10.20288 -10.20287 -10.19023 -10.19023
 Alpha  occ. eigenvalues --  -10.19022 -10.19021  -1.11550  -1.08912  -1.02341
 Alpha  occ. eigenvalues --   -0.98811  -0.97907  -0.96925  -0.86816  -0.86213
 Alpha  occ. eigenvalues --   -0.83376  -0.81920  -0.77750  -0.74128  -0.71327
 Alpha  occ. eigenvalues --   -0.70616  -0.69059  -0.67517  -0.66606  -0.66244
 Alpha  occ. eigenvalues --   -0.65638  -0.64135  -0.62394  -0.60429  -0.58896
 Alpha  occ. eigenvalues --   -0.57858  -0.57518  -0.54056  -0.50462  -0.50405
 Alpha  occ. eigenvalues --   -0.49278
 Alpha virt. eigenvalues --   -0.15666  -0.11945  -0.11754  -0.09801  -0.01675
 Alpha virt. eigenvalues --   -0.00867   0.00389   0.02158   0.02216   0.03861
 Alpha virt. eigenvalues --    0.03905   0.04716   0.05193   0.05334   0.05392

  Beta  occ. eigenvalues --  -10.22752 -10.22738 -10.20311 -10.20311 -10.20125
  Beta  occ. eigenvalues --  -10.20124 -10.20123 -10.20121 -10.19102 -10.19102
  Beta  occ. eigenvalues --  -10.19100 -10.19100  -1.10997  -1.08434  -1.01737
  Beta  occ. eigenvalues --   -0.98603  -0.97755  -0.95884  -0.86391  -0.85973
  Beta  occ. eigenvalues --   -0.83017  -0.81613  -0.77605  -0.73876  -0.71113
  Beta  occ. eigenvalues --   -0.70432  -0.68527  -0.67350  -0.66337  -0.66168
  Beta  occ. eigenvalues --   -0.65439  -0.63115  -0.60357  -0.60259  -0.58745
  Beta  occ. eigenvalues --   -0.57754  -0.57250  -0.50110  -0.50100  -0.50050
  Beta virt. eigenvalues --   -0.30455  -0.13494  -0.11205  -0.10665  -0.07781
  Beta virt. eigenvalues --   -0.01598  -0.00770   0.00470   0.02339   0.02587
  Beta virt. eigenvalues --    0.04077   0.04227   0.04781   0.05513   0.05677

 Mulliken charges and spin densities:
               1          2
     1  C   -0.086304  -0.081240
     2  C   -0.052213   0.295546
     3  C   -0.095875   0.127727
     4  C   -0.086328  -0.081279
     5  C    0.017424   0.134358
     6  C   -0.095904   0.127764
     7  H    0.180293  -0.013704
     8  H    0.187625  -0.007462
     9  H    0.171817   0.002876
    10  H    0.187643  -0.007461
    11  C    0.017402   0.134348
    12  C   -0.095867   0.127784
    13  C   -0.095892   0.127710
    14  C   -0.086331  -0.081273
    15  C   -0.086317  -0.081249
    16  C   -0.052204   0.295546
    17  H    0.187628  -0.007465
    18  H    0.187645  -0.007458
    19  H    0.171820   0.002879
    20  H    0.171818   0.002877
    21  H    0.180294  -0.013704
    22  H    0.171823   0.002880
 Sum of Mulliken charges =   1.00000   1.00000

 Dipole moment (field-independent basis, Debye):
    X=             -0.0000    Y=              0.0001    Z=              0.0003  Tot=              0.0003
 Quadrupole moment (field-independent basis, Debye-Ang):
   XX=            -18.4993   YY=            -52.3814   ZZ=            -69.4017
   XY=              0.0007   XZ=              0.0005   YZ=             -0.0002

 Normal termination of Gaussian 16 at Sun Jan 17 10:08:18 2021.
