 Gaussian 16, Revision A.03,
 Gaussian 16:  EM64L-G16RevA.03 25-Dec-2016

 ----------------------------------------------------------------------
 #P LC-wHPBE/TZVP iop(3/107=0230600000, 3/108=0230600000) scf=(conver=6
 ,fermi,ndamp=35,noincfock,novaracc,vshift=500,xqc)
 ----------------------------------------------------------------------

 -------
 H10 C12
 -------
 Symbolic Z-matrix:
 Charge =  1 Multiplicity = 2

                         Standard orientation:
 ---------------------------------------------------------------------
 Center     Atomic      Atomic             Coordinates (Angstroms)
 Number     Number       Type             X           Y           Z
 ---------------------------------------------------------------------
      1          6           0       -2.858500   -1.132993   -0.413690
      2          6           0       -3.561927    0.000084    0.000146
      3          6           0       -1.463685   -1.132747   -0.413534
      4          6           0       -2.858269    1.133176    0.413741
      5          6           0       -0.742381   -0.000123   -0.000091
      6          6           0       -1.463491    1.132675    0.413489
      7          1           0       -4.653174    0.000160    0.000261
      8          1           0       -0.922222   -2.014213   -0.762301
      9          1           0       -3.398792    2.020986    0.747134
     10          1           0       -0.921754    2.014027    0.762095
     11          6           0        0.742385   -0.000142   -0.000197
     12          6           0        1.463539    1.132637   -0.413582
     13          6           0        1.463636   -1.132765    0.413477
     14          6           0        2.858357    1.133114   -0.413660
     15          6           0        2.858412   -1.133073    0.413706
     16          6           0        3.561931    0.000095    0.000087
     17          1           0        0.921935    2.014039   -0.762261
     18          1           0        0.922017   -2.014128    0.762265
     19          1           0        3.398826    2.021000   -0.746938
     20          1           0        3.399026   -2.020805    0.747168
     21          1           0        4.653184    0.000117    0.000198
     22          1           0       -3.399078   -2.020813   -0.746974
 ---------------------------------------------------------------------

 SCF Done:  E(ULC-wHPBE) =  -462.715593538     A.U. after   17 cycles

 The electronic state is 2-A.
 Alpha  occ. eigenvalues --  -10.22652 -10.22640 -10.20377 -10.20377 -10.19996
 Alpha  occ. eigenvalues --  -10.19995 -10.19994 -10.19992 -10.18741 -10.18740
 Alpha  occ. eigenvalues --  -10.18739 -10.18739  -1.11239  -1.08607  -1.02049
 Alpha  occ. eigenvalues --   -0.98524  -0.97624  -0.96643  -0.86559  -0.85956
 Alpha  occ. eigenvalues --   -0.83128  -0.81676  -0.77511  -0.73899  -0.71112
 Alpha  occ. eigenvalues --   -0.70398  -0.68847  -0.67308  -0.66400  -0.66038
 Alpha  occ. eigenvalues --   -0.65431  -0.63922  -0.62184  -0.60241  -0.58713
 Alpha  occ. eigenvalues --   -0.57680  -0.57340  -0.53907  -0.50331  -0.50275
 Alpha  occ. eigenvalues --   -0.49146
 Alpha virt. eigenvalues --   -0.15747  -0.12049  -0.11858  -0.09908  -0.01774
 Alpha virt. eigenvalues --   -0.00971   0.00291   0.02015   0.02121   0.03761
 Alpha virt. eigenvalues --    0.03786   0.04607   0.05035   0.05235   0.05295

  Beta  occ. eigenvalues --  -10.22455 -10.22441 -10.20021 -10.20020 -10.19832
  Beta  occ. eigenvalues --  -10.19832 -10.19830 -10.19829 -10.18817 -10.18816
  Beta  occ. eigenvalues --  -10.18815 -10.18814  -1.10688  -1.08132  -1.01447
  Beta  occ. eigenvalues --   -0.98316  -0.97471  -0.95614  -0.86136  -0.85716
  Beta  occ. eigenvalues --   -0.82771  -0.81369  -0.77366  -0.73649  -0.70898
  Beta  occ. eigenvalues --   -0.70214  -0.68322  -0.67140  -0.66132  -0.65962
  Beta  occ. eigenvalues --   -0.65236  -0.62917  -0.60192  -0.60072  -0.58562
  Beta  occ. eigenvalues --   -0.57576  -0.57072  -0.50009  -0.49976  -0.49918
  Beta virt. eigenvalues --   -0.30514  -0.13596  -0.11321  -0.10787  -0.07918
  Beta virt. eigenvalues --   -0.01697  -0.00874   0.00372   0.02244   0.02461
  Beta virt. eigenvalues --    0.03976   0.04098   0.04680   0.05416   0.05579

 Mulliken charges and spin densities:
               1          2
     1  C   -0.085536  -0.078873
     2  C   -0.051904   0.293276
     3  C   -0.095301   0.125974
     4  C   -0.085559  -0.078912
     5  C    0.017499   0.135335
     6  C   -0.095331   0.126011
     7  H    0.179723  -0.013625
     8  H    0.186957  -0.007377
     9  H    0.171237   0.002784
    10  H    0.186975  -0.007377
    11  C    0.017477   0.135326
    12  C   -0.095294   0.126031
    13  C   -0.095318   0.125957
    14  C   -0.085562  -0.078905
    15  C   -0.085548  -0.078882
    16  C   -0.051895   0.293276
    17  H    0.186960  -0.007381
    18  H    0.186976  -0.007374
    19  H    0.171240   0.002787
    20  H    0.171237   0.002785
    21  H    0.179723  -0.013624
    22  H    0.171243   0.002788
 Sum of Mulliken charges =   1.00000   1.00000

 Dipole moment (field-independent basis, Debye):
    X=             -0.0000    Y=              0.0001    Z=              0.0003  Tot=              0.0003
 Quadrupole moment (field-independent basis, Debye-Ang):
   XX=            -18.5094   YY=            -52.3948   ZZ=            -69.4023
   XY=              0.0007   XZ=              0.0005   YZ=             -0.0002

 Normal termination of Gaussian 16 at Sun Jan 17 10:00:58 2021.
