 Gaussian 16, Revision A.03,
 Gaussian 16:  EM64L-G16RevA.03 25-Dec-2016

 ----------------------------------------------------------------------
 #P LC-wHPBE/TZVP iop(3/107=0221900000, 3/108=0221900000) scf=(conver=6
 ,fermi,ndamp=35,noincfock,novaracc,vshift=500,xqc)
 ----------------------------------------------------------------------

 -------
 H10 C12
 -------
 Symbolic Z-matrix:
 Charge =  0 Multiplicity = 1

                         Standard orientation:
 ---------------------------------------------------------------------
 Center     Atomic      Atomic             Coordinates (Angstroms)
 Number     Number       Type             X           Y           Z
 ---------------------------------------------------------------------
      1          6           0       -2.858500   -1.132993   -0.413690
      2          6           0       -3.561927    0.000084    0.000146
      3          6           0       -1.463685   -1.132747   -0.413534
      4          6           0       -2.858269    1.133176    0.413741
      5          6           0       -0.742381   -0.000123   -0.000091
      6          6           0       -1.463491    1.132675    0.413489
      7          1           0       -4.653174    0.000160    0.000261
      8          1           0       -0.922222   -2.014213   -0.762301
      9          1           0       -3.398792    2.020986    0.747134
     10          1           0       -0.921754    2.014027    0.762095
     11          6           0        0.742385   -0.000142   -0.000197
     12          6           0        1.463539    1.132637   -0.413582
     13          6           0        1.463636   -1.132765    0.413477
     14          6           0        2.858357    1.133114   -0.413660
     15          6           0        2.858412   -1.133073    0.413706
     16          6           0        3.561931    0.000095    0.000087
     17          1           0        0.921935    2.014039   -0.762261
     18          1           0        0.922017   -2.014128    0.762265
     19          1           0        3.398826    2.021000   -0.746938
     20          1           0        3.399026   -2.020805    0.747168
     21          1           0        4.653184    0.000117    0.000198
     22          1           0       -3.399078   -2.020813   -0.746974
 ---------------------------------------------------------------------

 SCF Done:  E(RLC-wHPBE) =  -463.015197265     A.U. after   12 cycles

 The electronic state is 1-A.
 Alpha  occ. eigenvalues --  -10.02735 -10.02722 -10.01626 -10.01625 -10.01623
 Alpha  occ. eigenvalues --  -10.01623 -10.01566 -10.01565 -10.01564 -10.01564
 Alpha  occ. eigenvalues --  -10.01521 -10.01521  -0.92437  -0.90291  -0.83587
 Alpha  occ. eigenvalues --   -0.80889  -0.80141  -0.77996  -0.68777  -0.68252
 Alpha  occ. eigenvalues --   -0.65483  -0.64241  -0.60248  -0.56731  -0.53573
 Alpha  occ. eigenvalues --   -0.53278  -0.50689  -0.50662  -0.49132  -0.48748
 Alpha  occ. eigenvalues --   -0.48453  -0.45750  -0.44163  -0.43200  -0.41747
 Alpha  occ. eigenvalues --   -0.40313  -0.40119  -0.35414  -0.33123  -0.33078
 Alpha  occ. eigenvalues --   -0.30195
 Alpha virt. eigenvalues --    0.02002   0.04440   0.04680   0.07627   0.11581
 Alpha virt. eigenvalues --    0.12114   0.13739   0.15038   0.15550   0.17068
 Alpha virt. eigenvalues --    0.17367   0.18232   0.18515   0.19157   0.21244

 Mulliken charges:
               1
     1  C   -0.096803
     2  C   -0.125165
     3  C   -0.138511
     4  C   -0.096829
     5  C    0.000200
     6  C   -0.138543
     7  H    0.110600
     8  H    0.134067
     9  H    0.108445
    10  H    0.134091
    11  C    0.000183
    12  C   -0.138500
    13  C   -0.138528
    14  C   -0.096835
    15  C   -0.096816
    16  C   -0.125156
    17  H    0.134076
    18  H    0.134088
    19  H    0.108444
    20  H    0.108444
    21  H    0.110600
    22  H    0.108445
 Sum of Mulliken charges =  -0.00000

 Dipole moment (field-independent basis, Debye):
    X=             -0.0000    Y=              0.0001    Z=              0.0003  Tot=              0.0003
 Quadrupole moment (field-independent basis, Debye-Ang):
   XX=            -61.8429   YY=            -63.5145   ZZ=            -75.1905
   XY=              0.0005   XZ=              0.0005   YZ=             -0.0002

 Normal termination of Gaussian 16 at Sun Jan 17 09:36:48 2021.
