 Gaussian 16, Revision A.03,
 Gaussian 16:  EM64L-G16RevA.03 25-Dec-2016

 ----------------------------------------------------------------------
 #P LC-wHPBE/TZVP iop(3/107=0235400000, 3/108=0235400000) scf=(conver=6
 ,fermi,ndamp=35,noincfock,novaracc,vshift=500,xqc)
 ----------------------------------------------------------------------

 -------
 H10 C12
 -------
 Symbolic Z-matrix:
 Charge =  0 Multiplicity = 1

                         Standard orientation:
 ---------------------------------------------------------------------
 Center     Atomic      Atomic             Coordinates (Angstroms)
 Number     Number       Type             X           Y           Z
 ---------------------------------------------------------------------
      1          6           0       -2.858500   -1.132993   -0.413690
      2          6           0       -3.561927    0.000084    0.000146
      3          6           0       -1.463685   -1.132747   -0.413534
      4          6           0       -2.858269    1.133176    0.413741
      5          6           0       -0.742381   -0.000123   -0.000091
      6          6           0       -1.463491    1.132675    0.413489
      7          1           0       -4.653174    0.000160    0.000261
      8          1           0       -0.922222   -2.014213   -0.762301
      9          1           0       -3.398792    2.020986    0.747134
     10          1           0       -0.921754    2.014027    0.762095
     11          6           0        0.742385   -0.000142   -0.000197
     12          6           0        1.463539    1.132637   -0.413582
     13          6           0        1.463636   -1.132765    0.413477
     14          6           0        2.858357    1.133114   -0.413660
     15          6           0        2.858412   -1.133073    0.413706
     16          6           0        3.561931    0.000095    0.000087
     17          1           0        0.921935    2.014039   -0.762261
     18          1           0        0.922017   -2.014128    0.762265
     19          1           0        3.398826    2.021000   -0.746938
     20          1           0        3.399026   -2.020805    0.747168
     21          1           0        4.653184    0.000117    0.000198
     22          1           0       -3.399078   -2.020813   -0.746974
 ---------------------------------------------------------------------

 SCF Done:  E(RLC-wHPBE) =  -463.023239340     A.U. after   11 cycles

 The electronic state is 1-A.
 Alpha  occ. eigenvalues --  -10.03498 -10.03485 -10.02386 -10.02385 -10.02383
 Alpha  occ. eigenvalues --  -10.02383 -10.02325 -10.02324 -10.02324 -10.02323
 Alpha  occ. eigenvalues --  -10.02281 -10.02281  -0.93247  -0.91090  -0.84355
 Alpha  occ. eigenvalues --   -0.81645  -0.80890  -0.78730  -0.69452  -0.68929
 Alpha  occ. eigenvalues --   -0.66136  -0.64887  -0.60876  -0.57329  -0.54150
 Alpha  occ. eigenvalues --   -0.53845  -0.51242  -0.51215  -0.49674  -0.49282
 Alpha  occ. eigenvalues --   -0.48991  -0.46313  -0.44713  -0.43693  -0.42230
 Alpha  occ. eigenvalues --   -0.40780  -0.40587  -0.35794  -0.33478  -0.33428
 Alpha  occ. eigenvalues --   -0.30506
 Alpha virt. eigenvalues --    0.02240   0.04708   0.04949   0.07921   0.11842
 Alpha virt. eigenvalues --    0.12380   0.13992   0.15284   0.15806   0.17325
 Alpha virt. eigenvalues --    0.17617   0.18470   0.18869   0.19408   0.21600

 Mulliken charges:
               1
     1  C   -0.098140
     2  C   -0.127385
     3  C   -0.140677
     4  C   -0.098165
     5  C    0.000095
     6  C   -0.140710
     7  H    0.112364
     8  H    0.136060
     9  H    0.110236
    10  H    0.136084
    11  C    0.000078
    12  C   -0.140667
    13  C   -0.140694
    14  C   -0.098171
    15  C   -0.098153
    16  C   -0.127376
    17  H    0.136069
    18  H    0.136080
    19  H    0.110236
    20  H    0.110235
    21  H    0.112364
    22  H    0.110236
 Sum of Mulliken charges =  -0.00000

 Dipole moment (field-independent basis, Debye):
    X=             -0.0000    Y=              0.0001    Z=              0.0003  Tot=              0.0003
 Quadrupole moment (field-independent basis, Debye-Ang):
   XX=            -61.7839   YY=            -63.4543   ZZ=            -75.1798
   XY=              0.0005   XZ=              0.0005   YZ=             -0.0002

 Normal termination of Gaussian 16 at Sun Jan 17 10:09:30 2021.
