 Gaussian 16, Revision A.03,
 Gaussian 16:  EM64L-G16RevA.03 25-Dec-2016

 ----------------------------------------------------------------------
 #P LC-wHPBE/TZVP iop(3/107=0249700000, 3/108=0249700000) scf=(conver=6
 ,fermi,ndamp=35,noincfock,novaracc,vshift=500,xqc)
 ----------------------------------------------------------------------

 -------
 H10 C12
 -------
 Symbolic Z-matrix:
 Charge =  1 Multiplicity = 2

                         Standard orientation:
 ---------------------------------------------------------------------
 Center     Atomic      Atomic             Coordinates (Angstroms)
 Number     Number       Type             X           Y           Z
 ---------------------------------------------------------------------
      1          6           0       -2.858500   -1.132993   -0.413690
      2          6           0       -3.561927    0.000084    0.000146
      3          6           0       -1.463685   -1.132747   -0.413534
      4          6           0       -2.858269    1.133176    0.413741
      5          6           0       -0.742381   -0.000123   -0.000091
      6          6           0       -1.463491    1.132675    0.413489
      7          1           0       -4.653174    0.000160    0.000261
      8          1           0       -0.922222   -2.014213   -0.762301
      9          1           0       -3.398792    2.020986    0.747134
     10          1           0       -0.921754    2.014027    0.762095
     11          6           0        0.742385   -0.000142   -0.000197
     12          6           0        1.463539    1.132637   -0.413582
     13          6           0        1.463636   -1.132765    0.413477
     14          6           0        2.858357    1.133114   -0.413660
     15          6           0        2.858412   -1.133073    0.413706
     16          6           0        3.561931    0.000095    0.000087
     17          1           0        0.921935    2.014039   -0.762261
     18          1           0        0.922017   -2.014128    0.762265
     19          1           0        3.398826    2.021000   -0.746938
     20          1           0        3.399026   -2.020805    0.747168
     21          1           0        4.653184    0.000117    0.000198
     22          1           0       -3.399078   -2.020813   -0.746974
 ---------------------------------------------------------------------

 SCF Done:  E(ULC-wHPBE) =  -462.725445207     A.U. after   17 cycles

 The electronic state is 2-A.
 Alpha  occ. eigenvalues --  -10.23762 -10.23750 -10.21473 -10.21473 -10.21098
 Alpha  occ. eigenvalues --  -10.21098 -10.21096 -10.21095 -10.19800 -10.19799
 Alpha  occ. eigenvalues --  -10.19798 -10.19798  -1.12401  -1.09746  -1.03138
 Alpha  occ. eigenvalues --   -0.99593  -0.98677  -0.97695  -0.87511  -0.86906
 Alpha  occ. eigenvalues --   -0.84047  -0.82579  -0.78392  -0.74743  -0.71904
 Alpha  occ. eigenvalues --   -0.71199  -0.69628  -0.68078  -0.67158  -0.66797
 Alpha  occ. eigenvalues --   -0.66193  -0.64701  -0.62951  -0.60932  -0.59386
 Alpha  occ. eigenvalues --   -0.58334  -0.57996  -0.54448  -0.50804  -0.50743
 Alpha  occ. eigenvalues --   -0.49626
 Alpha virt. eigenvalues --   -0.15460  -0.11677  -0.11485  -0.09523  -0.01419
 Alpha virt. eigenvalues --   -0.00597   0.00640   0.02460   0.02524   0.04118
 Alpha virt. eigenvalues --    0.04220   0.04990   0.05587   0.05619   0.05641

  Beta  occ. eigenvalues --  -10.23569 -10.23554 -10.21109 -10.21109 -10.20927
  Beta  occ. eigenvalues --  -10.20927 -10.20925 -10.20924 -10.19885 -10.19885
  Beta  occ. eigenvalues --  -10.19883 -10.19883  -1.11842  -1.09259  -1.02525
  Beta  occ. eigenvalues --   -0.99384  -0.98527  -0.96617  -0.87078  -0.86668
  Beta  occ. eigenvalues --   -0.83681  -0.82272  -0.78247  -0.74485  -0.71690
  Beta  occ. eigenvalues --   -0.71017  -0.69078  -0.67911  -0.66886  -0.66721
  Beta  occ. eigenvalues --   -0.65984  -0.63638  -0.60795  -0.60759  -0.59234
  Beta  occ. eigenvalues --   -0.58231  -0.57726  -0.50461  -0.50397  -0.50340
  Beta virt. eigenvalues --   -0.30302  -0.13230  -0.10906  -0.10346  -0.07425
  Beta virt. eigenvalues --   -0.01341  -0.00499   0.00721   0.02582   0.02909
  Beta virt. eigenvalues --    0.04338   0.04568   0.05041   0.05762   0.05928

 Mulliken charges and spin densities:
               1          2
     1  C   -0.088494  -0.087925
     2  C   -0.053081   0.302051
     3  C   -0.097519   0.132650
     4  C   -0.088519  -0.087963
     5  C    0.017165   0.131559
     6  C   -0.097547   0.132686
     7  H    0.181931  -0.013932
     8  H    0.189532  -0.007697
     9  H    0.173489   0.003134
    10  H    0.189549  -0.007696
    11  C    0.017143   0.131550
    12  C   -0.097510   0.132707
    13  C   -0.097537   0.132631
    14  C   -0.088521  -0.087958
    15  C   -0.088506  -0.087933
    16  C   -0.053072   0.302050
    17  H    0.189535  -0.007700
    18  H    0.189551  -0.007692
    19  H    0.173492   0.003137
    20  H    0.173490   0.003135
    21  H    0.181932  -0.013932
    22  H    0.173495   0.003138
 Sum of Mulliken charges =   1.00000   1.00000

 Dipole moment (field-independent basis, Debye):
    X=             -0.0001    Y=              0.0001    Z=              0.0003  Tot=              0.0003
 Quadrupole moment (field-independent basis, Debye-Ang):
   XX=            -18.4684   YY=            -52.3443   ZZ=            -69.4011
   XY=              0.0007   XZ=              0.0005   YZ=             -0.0002

 Normal termination of Gaussian 16 at Sun Jan 17 09:50:05 2021.
