 Gaussian 16, Revision A.03,
 Gaussian 16:  EM64L-G16RevA.03 25-Dec-2016

 ----------------------------------------------------------------------
 #P LC-wHPBE/TZVP iop(3/107=0156200000, 3/108=0156200000) scf=(conver=6
 ,fermi,ndamp=35,noincfock,novaracc,vshift=500,xqc)
 ----------------------------------------------------------------------

 -------
 H10 C12
 -------
 Symbolic Z-matrix:
 Charge =  0 Multiplicity = 1

                         Standard orientation:
 ---------------------------------------------------------------------
 Center     Atomic      Atomic             Coordinates (Angstroms)
 Number     Number       Type             X           Y           Z
 ---------------------------------------------------------------------
      1          6           0       -2.858500   -1.132993   -0.413690
      2          6           0       -3.561927    0.000084    0.000146
      3          6           0       -1.463685   -1.132747   -0.413534
      4          6           0       -2.858269    1.133176    0.413741
      5          6           0       -0.742381   -0.000123   -0.000091
      6          6           0       -1.463491    1.132675    0.413489
      7          1           0       -4.653174    0.000160    0.000261
      8          1           0       -0.922222   -2.014213   -0.762301
      9          1           0       -3.398792    2.020986    0.747134
     10          1           0       -0.921754    2.014027    0.762095
     11          6           0        0.742385   -0.000142   -0.000197
     12          6           0        1.463539    1.132637   -0.413582
     13          6           0        1.463636   -1.132765    0.413477
     14          6           0        2.858357    1.133114   -0.413660
     15          6           0        2.858412   -1.133073    0.413706
     16          6           0        3.561931    0.000095    0.000087
     17          1           0        0.921935    2.014039   -0.762261
     18          1           0        0.922017   -2.014128    0.762265
     19          1           0        3.398826    2.021000   -0.746938
     20          1           0        3.399026   -2.020805    0.747168
     21          1           0        4.653184    0.000117    0.000198
     22          1           0       -3.399078   -2.020813   -0.746974
 ---------------------------------------------------------------------

 SCF Done:  E(RLC-wHPBE) =  -462.972325923     A.U. after   12 cycles

 The electronic state is 1-A.
 Alpha  occ. eigenvalues --   -9.99022  -9.99009  -9.97928  -9.97927  -9.97924
 Alpha  occ. eigenvalues --   -9.97924  -9.97867  -9.97866  -9.97866  -9.97865
 Alpha  occ. eigenvalues --   -9.97825  -9.97825  -0.88493  -0.86383  -0.79780
 Alpha  occ. eigenvalues --   -0.77128  -0.76407  -0.74322  -0.65320  -0.64782
 Alpha  occ. eigenvalues --   -0.62120  -0.60899  -0.56943  -0.53568  -0.50498
 Alpha  occ. eigenvalues --   -0.50266  -0.47735  -0.47713  -0.46236  -0.45891
 Alpha  occ. eigenvalues --   -0.45574  -0.42684  -0.41137  -0.40531  -0.39120
 Alpha  occ. eigenvalues --   -0.37766  -0.37568  -0.33177  -0.31005  -0.30991
 Alpha  occ. eigenvalues --   -0.28329
 Alpha virt. eigenvalues --    0.00456   0.02713   0.02958   0.05768   0.09919
 Alpha virt. eigenvalues --    0.10437   0.12105   0.13447   0.13896   0.15425
 Alpha virt. eigenvalues --    0.15757   0.16316   0.16696   0.17534   0.19095

 Mulliken charges:
               1
     1  C   -0.092645
     2  C   -0.116907
     3  C   -0.130095
     4  C   -0.092672
     5  C   -0.000932
     6  C   -0.130125
     7  H    0.104678
     8  H    0.126904
     9  H    0.102434
    10  H    0.126927
    11  C   -0.000952
    12  C   -0.130081
    13  C   -0.130110
    14  C   -0.092679
    15  C   -0.092659
    16  C   -0.116898
    17  H    0.126912
    18  H    0.126924
    19  H    0.102433
    20  H    0.102433
    21  H    0.104678
    22  H    0.102433
 Sum of Mulliken charges =  -0.00000

 Dipole moment (field-independent basis, Debye):
    X=             -0.0000    Y=              0.0001    Z=              0.0003  Tot=              0.0003
 Quadrupole moment (field-independent basis, Debye-Ang):
   XX=            -62.0954   YY=            -63.7848   ZZ=            -75.2639
   XY=              0.0005   XZ=              0.0005   YZ=             -0.0002

 Normal termination of Gaussian 16 at Sun Jan 17 09:44:08 2021.
