 Gaussian 16, Revision A.03,
 Gaussian 16:  EM64L-G16RevA.03 25-Dec-2016

 ----------------------------------------------------------------------
 #P LC-wHPBE/TZVP iop(3/107=0235000000, 3/108=0235000000) scf=(conver=6
 ,fermi,ndamp=35,noincfock,novaracc,vshift=500,xqc)
 ----------------------------------------------------------------------

 -------
 H10 C12
 -------
 Symbolic Z-matrix:
 Charge =  1 Multiplicity = 2

                         Standard orientation:
 ---------------------------------------------------------------------
 Center     Atomic      Atomic             Coordinates (Angstroms)
 Number     Number       Type             X           Y           Z
 ---------------------------------------------------------------------
      1          6           0       -2.858500   -1.132993   -0.413690
      2          6           0       -3.561927    0.000084    0.000146
      3          6           0       -1.463685   -1.132747   -0.413534
      4          6           0       -2.858269    1.133176    0.413741
      5          6           0       -0.742381   -0.000123   -0.000091
      6          6           0       -1.463491    1.132675    0.413489
      7          1           0       -4.653174    0.000160    0.000261
      8          1           0       -0.922222   -2.014213   -0.762301
      9          1           0       -3.398792    2.020986    0.747134
     10          1           0       -0.921754    2.014027    0.762095
     11          6           0        0.742385   -0.000142   -0.000197
     12          6           0        1.463539    1.132637   -0.413582
     13          6           0        1.463636   -1.132765    0.413477
     14          6           0        2.858357    1.133114   -0.413660
     15          6           0        2.858412   -1.133073    0.413706
     16          6           0        3.561931    0.000095    0.000087
     17          1           0        0.921935    2.014039   -0.762261
     18          1           0        0.922017   -2.014128    0.762265
     19          1           0        3.398826    2.021000   -0.746938
     20          1           0        3.399026   -2.020805    0.747168
     21          1           0        4.653184    0.000117    0.000198
     22          1           0       -3.399078   -2.020813   -0.746974
 ---------------------------------------------------------------------

 SCF Done:  E(ULC-wHPBE) =  -462.717923323     A.U. after   17 cycles

 The electronic state is 2-A.
 Alpha  occ. eigenvalues --  -10.22908 -10.22895 -10.20629 -10.20629 -10.20250
 Alpha  occ. eigenvalues --  -10.20249 -10.20248 -10.20246 -10.18985 -10.18984
 Alpha  occ. eigenvalues --  -10.18983 -10.18983  -1.11507  -1.08870  -1.02301
 Alpha  occ. eigenvalues --   -0.98772  -0.97868  -0.96887  -0.86781  -0.86178
 Alpha  occ. eigenvalues --   -0.83342  -0.81887  -0.77717  -0.74097  -0.71297
 Alpha  occ. eigenvalues --   -0.70586  -0.69031  -0.67489  -0.66578  -0.66216
 Alpha  occ. eigenvalues --   -0.65610  -0.64106  -0.62365  -0.60403  -0.58871
 Alpha  occ. eigenvalues --   -0.57834  -0.57494  -0.54036  -0.50444  -0.50387
 Alpha  occ. eigenvalues --   -0.49260
 Alpha virt. eigenvalues --   -0.15677  -0.11959  -0.11768  -0.09815  -0.01688
 Alpha virt. eigenvalues --   -0.00881   0.00375   0.02138   0.02203   0.03847
 Alpha virt. eigenvalues --    0.03889   0.04702   0.05172   0.05321   0.05379

  Beta  occ. eigenvalues --  -10.22711 -10.22697 -10.20271 -10.20271 -10.20085
  Beta  occ. eigenvalues --  -10.20084 -10.20082 -10.20081 -10.19063 -10.19062
  Beta  occ. eigenvalues --  -10.19061 -10.19060  -1.10955  -1.08392  -1.01697
  Beta  occ. eigenvalues --   -0.98564  -0.97716  -0.95847  -0.86356  -0.85938
  Beta  occ. eigenvalues --   -0.82983  -0.81580  -0.77573  -0.73845  -0.71083
  Beta  occ. eigenvalues --   -0.70402  -0.68499  -0.67321  -0.66309  -0.66140
  Beta  occ. eigenvalues --   -0.65412  -0.63088  -0.60335  -0.60233  -0.58720
  Beta  occ. eigenvalues --   -0.57730  -0.57226  -0.50092  -0.50088  -0.50032
  Beta virt. eigenvalues --   -0.30463  -0.13508  -0.11221  -0.10681  -0.07800
  Beta virt. eigenvalues --   -0.01611  -0.00784   0.00457   0.02326   0.02570
  Beta virt. eigenvalues --    0.04063   0.04209   0.04768   0.05500   0.05664

 Mulliken charges and spin densities:
               1          2
     1  C   -0.086198  -0.080913
     2  C   -0.052170   0.295231
     3  C   -0.095795   0.127485
     4  C   -0.086221  -0.080952
     5  C    0.017435   0.134493
     6  C   -0.095825   0.127522
     7  H    0.180214  -0.013693
     8  H    0.187533  -0.007450
     9  H    0.171737   0.002863
    10  H    0.187550  -0.007450
    11  C    0.017413   0.134484
    12  C   -0.095788   0.127542
    13  C   -0.095812   0.127468
    14  C   -0.086224  -0.080946
    15  C   -0.086210  -0.080922
    16  C   -0.052161   0.295231
    17  H    0.187536  -0.007454
    18  H    0.187552  -0.007446
    19  H    0.171740   0.002866
    20  H    0.171737   0.002864
    21  H    0.180215  -0.013693
    22  H    0.171743   0.002867
 Sum of Mulliken charges =   1.00000   1.00000

 Dipole moment (field-independent basis, Debye):
    X=             -0.0000    Y=              0.0001    Z=              0.0003  Tot=              0.0003
 Quadrupole moment (field-independent basis, Debye-Ang):
   XX=            -18.5007   YY=            -52.3832   ZZ=            -69.4018
   XY=              0.0007   XZ=              0.0005   YZ=             -0.0002

 Normal termination of Gaussian 16 at Sun Jan 17 10:04:38 2021.
