 Gaussian 16, Revision A.03,
 Gaussian 16:  EM64L-G16RevA.03 25-Dec-2016

 ----------------------------------------------------------------------
 #P LC-wHPBE/TZVP iop(3/107=0236000000, 3/108=0236000000) scf=(conver=6
 ,fermi,ndamp=35,noincfock,novaracc,vshift=500,xqc)
 ----------------------------------------------------------------------

 -------
 H10 C12
 -------
 Symbolic Z-matrix:
 Charge =  1 Multiplicity = 2

                         Standard orientation:
 ---------------------------------------------------------------------
 Center     Atomic      Atomic             Coordinates (Angstroms)
 Number     Number       Type             X           Y           Z
 ---------------------------------------------------------------------
      1          6           0       -2.858500   -1.132993   -0.413690
      2          6           0       -3.561927    0.000084    0.000146
      3          6           0       -1.463685   -1.132747   -0.413534
      4          6           0       -2.858269    1.133176    0.413741
      5          6           0       -0.742381   -0.000123   -0.000091
      6          6           0       -1.463491    1.132675    0.413489
      7          1           0       -4.653174    0.000160    0.000261
      8          1           0       -0.922222   -2.014213   -0.762301
      9          1           0       -3.398792    2.020986    0.747134
     10          1           0       -0.921754    2.014027    0.762095
     11          6           0        0.742385   -0.000142   -0.000197
     12          6           0        1.463539    1.132637   -0.413582
     13          6           0        1.463636   -1.132765    0.413477
     14          6           0        2.858357    1.133114   -0.413660
     15          6           0        2.858412   -1.133073    0.413706
     16          6           0        3.561931    0.000095    0.000087
     17          1           0        0.921935    2.014039   -0.762261
     18          1           0        0.922017   -2.014128    0.762265
     19          1           0        3.398826    2.021000   -0.746938
     20          1           0        3.399026   -2.020805    0.747168
     21          1           0        4.653184    0.000117    0.000198
     22          1           0       -3.399078   -2.020813   -0.746974
 ---------------------------------------------------------------------

 SCF Done:  E(ULC-wHPBE) =  -462.718447948     A.U. after   17 cycles

 The electronic state is 2-A.
 Alpha  occ. eigenvalues --  -10.22966 -10.22954 -10.20687 -10.20687 -10.20308
 Alpha  occ. eigenvalues --  -10.20307 -10.20306 -10.20304 -10.19040 -10.19040
 Alpha  occ. eigenvalues --  -10.19039 -10.19038  -1.11568  -1.08930  -1.02359
 Alpha  occ. eigenvalues --   -0.98828  -0.97923  -0.96942  -0.86831  -0.86228
 Alpha  occ. eigenvalues --   -0.83391  -0.81934  -0.77764  -0.74141  -0.71339
 Alpha  occ. eigenvalues --   -0.70628  -0.69072  -0.67529  -0.66618  -0.66256
 Alpha  occ. eigenvalues --   -0.65651  -0.64147  -0.62406  -0.60440  -0.58907
 Alpha  occ. eigenvalues --   -0.57869  -0.57529  -0.54065  -0.50469  -0.50412
 Alpha  occ. eigenvalues --   -0.49286
 Alpha virt. eigenvalues --   -0.15661  -0.11939  -0.11748  -0.09794  -0.01669
 Alpha virt. eigenvalues --   -0.00861   0.00394   0.02166   0.02222   0.03867
 Alpha virt. eigenvalues --    0.03912   0.04723   0.05203   0.05340   0.05397

  Beta  occ. eigenvalues --  -10.22770 -10.22755 -10.20328 -10.20328 -10.20142
  Beta  occ. eigenvalues --  -10.20141 -10.20140 -10.20139 -10.19119 -10.19118
  Beta  occ. eigenvalues --  -10.19117 -10.19116  -1.11015  -1.08452  -1.01754
  Beta  occ. eigenvalues --   -0.98620  -0.97772  -0.95900  -0.86405  -0.85988
  Beta  occ. eigenvalues --   -0.83031  -0.81627  -0.77619  -0.73889  -0.71125
  Beta  occ. eigenvalues --   -0.70445  -0.68539  -0.67362  -0.66349  -0.66180
  Beta  occ. eigenvalues --   -0.65451  -0.63127  -0.60367  -0.60270  -0.58755
  Beta  occ. eigenvalues --   -0.57765  -0.57261  -0.50118  -0.50105  -0.50058
  Beta virt. eigenvalues --   -0.30451  -0.13488  -0.11199  -0.10658  -0.07773
  Beta virt. eigenvalues --   -0.01592  -0.00764   0.00475   0.02344   0.02594
  Beta virt. eigenvalues --    0.04083   0.04235   0.04787   0.05519   0.05682

 Mulliken charges and spin densities:
               1          2
     1  C   -0.086350  -0.081381
     2  C   -0.052231   0.295681
     3  C   -0.095909   0.127831
     4  C   -0.086374  -0.081419
     5  C    0.017420   0.134299
     6  C   -0.095938   0.127868
     7  H    0.180327  -0.013709
     8  H    0.187665  -0.007467
     9  H    0.171852   0.002882
    10  H    0.187683  -0.007466
    11  C    0.017398   0.134290
    12  C   -0.095902   0.127888
    13  C   -0.095926   0.127813
    14  C   -0.086377  -0.081413
    15  C   -0.086362  -0.081389
    16  C   -0.052222   0.295681
    17  H    0.187668  -0.007470
    18  H    0.187685  -0.007463
    19  H    0.171855   0.002885
    20  H    0.171853   0.002882
    21  H    0.180328  -0.013709
    22  H    0.171858   0.002886
 Sum of Mulliken charges =   1.00000   1.00000

 Dipole moment (field-independent basis, Debye):
    X=             -0.0000    Y=              0.0001    Z=              0.0003  Tot=              0.0003
 Quadrupole moment (field-independent basis, Debye-Ang):
   XX=            -18.4987   YY=            -52.3806   ZZ=            -69.4017
   XY=              0.0007   XZ=              0.0005   YZ=             -0.0002

 Normal termination of Gaussian 16 at Sun Jan 17 09:57:20 2021.
