 Gaussian 16, Revision A.03,
 Gaussian 16:  EM64L-G16RevA.03 25-Dec-2016

 ----------------------------------------------------------------------
 #P LC-wHPBE/TZVP iop(3/107=0249700000, 3/108=0249700000) scf=(conver=6
 ,fermi,ndamp=35,noincfock,novaracc,vshift=500,xqc)
 ----------------------------------------------------------------------

 -------
 H10 C12
 -------
 Symbolic Z-matrix:
 Charge =  0 Multiplicity = 1

                         Standard orientation:
 ---------------------------------------------------------------------
 Center     Atomic      Atomic             Coordinates (Angstroms)
 Number     Number       Type             X           Y           Z
 ---------------------------------------------------------------------
      1          6           0       -2.858500   -1.132993   -0.413690
      2          6           0       -3.561927    0.000084    0.000146
      3          6           0       -1.463685   -1.132747   -0.413534
      4          6           0       -2.858269    1.133176    0.413741
      5          6           0       -0.742381   -0.000123   -0.000091
      6          6           0       -1.463491    1.132675    0.413489
      7          1           0       -4.653174    0.000160    0.000261
      8          1           0       -0.922222   -2.014213   -0.762301
      9          1           0       -3.398792    2.020986    0.747134
     10          1           0       -0.921754    2.014027    0.762095
     11          6           0        0.742385   -0.000142   -0.000197
     12          6           0        1.463539    1.132637   -0.413582
     13          6           0        1.463636   -1.132765    0.413477
     14          6           0        2.858357    1.133114   -0.413660
     15          6           0        2.858412   -1.133073    0.413706
     16          6           0        3.561931    0.000095    0.000087
     17          1           0        0.921935    2.014039   -0.762261
     18          1           0        0.922017   -2.014128    0.762265
     19          1           0        3.398826    2.021000   -0.746938
     20          1           0        3.399026   -2.020805    0.747168
     21          1           0        4.653184    0.000117    0.000198
     22          1           0       -3.399078   -2.020813   -0.746974
 ---------------------------------------------------------------------

 SCF Done:  E(RLC-wHPBE) =  -463.031348529     A.U. after   11 cycles

 The electronic state is 1-A.
 Alpha  occ. eigenvalues --  -10.04307 -10.04295 -10.03192 -10.03191 -10.03188
 Alpha  occ. eigenvalues --  -10.03188 -10.03131 -10.03130 -10.03129 -10.03129
 Alpha  occ. eigenvalues --  -10.03085 -10.03085  -0.94102  -0.91932  -0.85161
 Alpha  occ. eigenvalues --   -0.82436  -0.81674  -0.79496  -0.70153  -0.69631
 Alpha  occ. eigenvalues --   -0.66812  -0.65553  -0.61521  -0.57942  -0.54742
 Alpha  occ. eigenvalues --   -0.54426  -0.51808  -0.51782  -0.50229  -0.49828
 Alpha  occ. eigenvalues --   -0.49542  -0.46884  -0.45268  -0.44195  -0.42722
 Alpha  occ. eigenvalues --   -0.41256  -0.41062  -0.36169  -0.33827  -0.33775
 Alpha  occ. eigenvalues --   -0.30813
 Alpha virt. eigenvalues --    0.02468   0.04964   0.05207   0.08205   0.12094
 Alpha virt. eigenvalues --    0.12635   0.14235   0.15519   0.16051   0.17571
 Alpha virt. eigenvalues --    0.17856   0.18698   0.19210   0.19649   0.21957

 Mulliken charges:
               1
     1  C   -0.099697
     2  C   -0.129835
     3  C   -0.143066
     4  C   -0.099720
     5  C   -0.000140
     6  C   -0.143099
     7  H    0.114373
     8  H    0.138303
     9  H    0.112276
    10  H    0.138327
    11  C   -0.000156
    12  C   -0.143057
    13  C   -0.143083
    14  C   -0.099726
    15  C   -0.099709
    16  C   -0.129826
    17  H    0.138312
    18  H    0.138323
    19  H    0.112275
    20  H    0.112275
    21  H    0.114373
    22  H    0.112276
 Sum of Mulliken charges =  -0.00000

 Dipole moment (field-independent basis, Debye):
    X=             -0.0000    Y=              0.0001    Z=              0.0003  Tot=              0.0003
 Quadrupole moment (field-independent basis, Debye-Ang):
   XX=            -61.7187   YY=            -63.3898   ZZ=            -75.1705
   XY=              0.0005   XZ=              0.0005   YZ=             -0.0002

 Normal termination of Gaussian 16 at Sun Jan 17 09:47:38 2021.
