 Gaussian 16, Revision A.03,
 Gaussian 16:  EM64L-G16RevA.03 25-Dec-2016

 ----------------------------------------------------------------------
 #P LC-wHPBE/TZVP iop(3/107=0247300000, 3/108=0247300000) scf=(conver=6
 ,fermi,ndamp=35,noincfock,novaracc,vshift=500,xqc)
 ----------------------------------------------------------------------

 ---------
 H18 C9 N3
 ---------
 Symbolic Z-matrix:
 Charge =  2 Multiplicity = 2

                         Standard orientation:
 ---------------------------------------------------------------------
 Center     Atomic      Atomic             Coordinates (Angstroms)
 Number     Number       Type             X           Y           Z
 ---------------------------------------------------------------------
      1          6           0       -0.610975   -0.510745   -0.000115
      2          6           0       -0.136632    0.784354   -0.000118
      3          7           0       -1.625585   -1.358470   -0.000149
      4          7           0       -0.363786    2.086845   -0.000256
      5          6           0       -1.430862   -2.779219    0.245115
      6          1           0       -1.515224   -3.355904   -0.681778
      7          1           0       -0.453738   -2.953483    0.694570
      8          1           0       -2.189816   -3.131940    0.948067
      9          6           0       -2.989097   -0.914073   -0.244915
     10          1           0       -3.471984   -1.599183   -0.946347
     11          1           0       -3.570851   -0.892877    0.682419
     12          1           0       -2.986856    0.077730   -0.695991
     13          6           0        0.702642    3.045751   -0.244739
     14          1           0        1.010678    3.539867    0.682520
     15          1           0        1.561174    2.547880   -0.694397
     16          1           0        0.351203    3.805740   -0.947208
     17          6           0       -1.691678    2.628275    0.244928
     18          1           0       -1.617946    3.461770    0.948079
     19          1           0       -2.148816    2.989837   -0.681963
     20          1           0       -2.331110    1.868946    0.694010
     21          6           0        0.747770   -0.273975   -0.000062
     22          7           0        1.989332   -0.728507    0.000089
     23          6           0        2.286824   -2.131338   -0.245062
     24          1           0        2.563014   -2.644923    0.681638
     25          1           0        1.425660   -2.626427   -0.692731
     26          1           0        3.119218   -2.206604   -0.949371
     27          6           0        3.122102    0.150924    0.245030
     28          1           0        3.807685   -0.330042    0.947323
     29          1           0        3.663088    0.366868   -0.682084
     30          1           0        2.784327    1.083936    0.695089
 ---------------------------------------------------------------------

 SCF Done:  E(ULC-wHPBE) =  -517.077817675     A.U. after   14 cycles

 The electronic state is 2-A.
 Alpha  occ. eigenvalues --  -14.52517 -14.52517 -14.52516 -10.43457 -10.43391
 Alpha  occ. eigenvalues --  -10.43391 -10.34135 -10.34135 -10.34135 -10.34132
 Alpha  occ. eigenvalues --  -10.34132 -10.34132  -1.40000  -1.36028  -1.36028
 Alpha  occ. eigenvalues --   -1.30480  -1.10883  -1.10882  -1.09798  -1.09400
 Alpha  occ. eigenvalues --   -1.09399  -1.07721  -0.93244  -0.93244  -0.92462
 Alpha  occ. eigenvalues --   -0.90316  -0.88502  -0.88502  -0.86203  -0.86202
 Alpha  occ. eigenvalues --   -0.85475  -0.79709  -0.78974  -0.78973  -0.78394
 Alpha  occ. eigenvalues --   -0.76953  -0.76951  -0.76769  -0.76767  -0.76672
 Alpha  occ. eigenvalues --   -0.75030  -0.75029  -0.74109  -0.68719  -0.68719
 Alpha  occ. eigenvalues --   -0.60523
 Alpha virt. eigenvalues --   -0.22642  -0.22640  -0.19540  -0.13712  -0.13710
 Alpha virt. eigenvalues --   -0.13202  -0.12865  -0.11528  -0.11527  -0.09759
 Alpha virt. eigenvalues --   -0.09758  -0.09209  -0.09144  -0.08246  -0.08245

  Beta  occ. eigenvalues --  -14.51860 -14.51859 -14.51857 -10.43505 -10.43441
  Beta  occ. eigenvalues --  -10.43441 -10.34153 -10.34153 -10.34153 -10.34150
  Beta  occ. eigenvalues --  -10.34150 -10.34150  -1.39385  -1.35074  -1.35074
  Beta  occ. eigenvalues --   -1.29563  -1.10737  -1.10736  -1.09639  -1.09269
  Beta  occ. eigenvalues --   -1.09268  -1.07485  -0.92867  -0.92867  -0.92070
  Beta  occ. eigenvalues --   -0.89306  -0.88228  -0.88228  -0.85086  -0.84768
  Beta  occ. eigenvalues --   -0.84768  -0.78818  -0.78817  -0.78793  -0.78286
  Beta  occ. eigenvalues --   -0.76643  -0.76642  -0.76503  -0.76501  -0.76331
  Beta  occ. eigenvalues --   -0.74910  -0.74909  -0.74039  -0.65888  -0.65888
  Beta virt. eigenvalues --   -0.40544  -0.21000  -0.20997  -0.19336  -0.13639
  Beta virt. eigenvalues --   -0.13638  -0.13228  -0.12618  -0.11352  -0.11351
  Beta virt. eigenvalues --   -0.09571  -0.09571  -0.09169  -0.09058  -0.08172

 Mulliken charges and spin densities:
               1          2
     1  C   -0.094346  -0.026096
     2  C   -0.094564  -0.026089
     3  N    0.097782   0.320571
     4  N    0.097799   0.320588
     5  C   -0.278365  -0.015694
     6  H    0.227195   0.019799
     7  H    0.167861   0.001198
     8  H    0.214971   0.014122
     9  C   -0.278641  -0.015703
    10  H    0.214949   0.014074
    11  H    0.227214   0.019823
    12  H    0.168045   0.001222
    13  C   -0.278442  -0.015701
    14  H    0.227187   0.019812
    15  H    0.167956   0.001207
    16  H    0.214930   0.014106
    17  C   -0.278346  -0.015692
    18  H    0.214919   0.014128
    19  H    0.227174   0.019793
    20  H    0.167925   0.001200
    21  C   -0.094416  -0.026121
    22  N    0.097786   0.320593
    23  C   -0.278072  -0.015691
    24  H    0.227144   0.019781
    25  H    0.167773   0.001178
    26  H    0.214931   0.014171
    27  C   -0.278388  -0.015703
    28  H    0.214888   0.014099
    29  H    0.227178   0.019812
    30  H    0.167972   0.001211
 Sum of Mulliken charges =   2.00000   1.00000

 Dipole moment (field-independent basis, Debye):
    X=              0.0001    Y=              0.0000    Z=              0.0006  Tot=              0.0006
 Quadrupole moment (field-independent basis, Debye-Ang):
   XX=            -17.5225   YY=            -17.5304   ZZ=            -66.4686
   XY=             -0.0002   XZ=             -0.0014   YZ=              0.0008

 Normal termination of Gaussian 16 at Mon Jan 25 21:43:54 2021.
