 Gaussian 16, Revision A.03,
 Gaussian 16:  EM64L-G16RevA.03 25-Dec-2016

 ----------------------------------------------------------------------
 #P LC-wHPBE/TZVP iop(3/107=0246200000, 3/108=0246200000) scf=(conver=6
 ,fermi,ndamp=35,noincfock,novaracc,vshift=500,xqc)
 ----------------------------------------------------------------------

 ---------
 H18 C9 N3
 ---------
 Symbolic Z-matrix:
 Charge =  2 Multiplicity = 2

                         Standard orientation:
 ---------------------------------------------------------------------
 Center     Atomic      Atomic             Coordinates (Angstroms)
 Number     Number       Type             X           Y           Z
 ---------------------------------------------------------------------
      1          6           0       -0.610975   -0.510745   -0.000115
      2          6           0       -0.136632    0.784354   -0.000118
      3          7           0       -1.625585   -1.358470   -0.000149
      4          7           0       -0.363786    2.086845   -0.000256
      5          6           0       -1.430862   -2.779219    0.245115
      6          1           0       -1.515224   -3.355904   -0.681778
      7          1           0       -0.453738   -2.953483    0.694570
      8          1           0       -2.189816   -3.131940    0.948067
      9          6           0       -2.989097   -0.914073   -0.244915
     10          1           0       -3.471984   -1.599183   -0.946347
     11          1           0       -3.570851   -0.892877    0.682419
     12          1           0       -2.986856    0.077730   -0.695991
     13          6           0        0.702642    3.045751   -0.244739
     14          1           0        1.010678    3.539867    0.682520
     15          1           0        1.561174    2.547880   -0.694397
     16          1           0        0.351203    3.805740   -0.947208
     17          6           0       -1.691678    2.628275    0.244928
     18          1           0       -1.617946    3.461770    0.948079
     19          1           0       -2.148816    2.989837   -0.681963
     20          1           0       -2.331110    1.868946    0.694010
     21          6           0        0.747770   -0.273975   -0.000062
     22          7           0        1.989332   -0.728507    0.000089
     23          6           0        2.286824   -2.131338   -0.245062
     24          1           0        2.563014   -2.644923    0.681638
     25          1           0        1.425660   -2.626427   -0.692731
     26          1           0        3.119218   -2.206604   -0.949371
     27          6           0        3.122102    0.150924    0.245030
     28          1           0        3.807685   -0.330042    0.947323
     29          1           0        3.663088    0.366868   -0.682084
     30          1           0        2.784327    1.083936    0.695089
 ---------------------------------------------------------------------

 SCF Done:  E(ULC-wHPBE) =  -517.076933596     A.U. after   14 cycles

 The electronic state is 2-A.
 Alpha  occ. eigenvalues --  -14.52454 -14.52454 -14.52453 -10.43390 -10.43325
 Alpha  occ. eigenvalues --  -10.43324 -10.34074 -10.34073 -10.34073 -10.34071
 Alpha  occ. eigenvalues --  -10.34071 -10.34070  -1.39932  -1.35963  -1.35962
 Alpha  occ. eigenvalues --   -1.30417  -1.10823  -1.10823  -1.09740  -1.09343
 Alpha  occ. eigenvalues --   -1.09342  -1.07666  -0.93194  -0.93194  -0.92414
 Alpha  occ. eigenvalues --   -0.90263  -0.88456  -0.88456  -0.86154  -0.86153
 Alpha  occ. eigenvalues --   -0.85432  -0.79667  -0.78932  -0.78931  -0.78352
 Alpha  occ. eigenvalues --   -0.76911  -0.76909  -0.76729  -0.76727  -0.76630
 Alpha  occ. eigenvalues --   -0.74990  -0.74989  -0.74070  -0.68681  -0.68681
 Alpha  occ. eigenvalues --   -0.60493
 Alpha virt. eigenvalues --   -0.22665  -0.22663  -0.19561  -0.13731  -0.13730
 Alpha virt. eigenvalues --   -0.13229  -0.12886  -0.11551  -0.11550  -0.09784
 Alpha virt. eigenvalues --   -0.09783  -0.09229  -0.09167  -0.08266  -0.08266

  Beta  occ. eigenvalues --  -14.51797 -14.51797 -14.51795 -10.43438 -10.43374
  Beta  occ. eigenvalues --  -10.43373 -10.34092 -10.34091 -10.34091 -10.34089
  Beta  occ. eigenvalues --  -10.34089 -10.34088  -1.39317  -1.35010  -1.35010
  Beta  occ. eigenvalues --   -1.29502  -1.10677  -1.10677  -1.09581  -1.09211
  Beta  occ. eigenvalues --   -1.09211  -1.07430  -0.92818  -0.92818  -0.92022
  Beta  occ. eigenvalues --   -0.89255  -0.88182  -0.88182  -0.85043  -0.84724
  Beta  occ. eigenvalues --   -0.84723  -0.78777  -0.78776  -0.78755  -0.78244
  Beta  occ. eigenvalues --   -0.76604  -0.76602  -0.76463  -0.76461  -0.76291
  Beta  occ. eigenvalues --   -0.74870  -0.74869  -0.73999  -0.65859  -0.65859
  Beta virt. eigenvalues --   -0.40555  -0.21027  -0.21025  -0.19357  -0.13658
  Beta virt. eigenvalues --   -0.13657  -0.13254  -0.12639  -0.11375  -0.11373
  Beta virt. eigenvalues --   -0.09597  -0.09596  -0.09189  -0.09081  -0.08193

 Mulliken charges and spin densities:
               1          2
     1  C   -0.094468  -0.025890
     2  C   -0.094685  -0.025883
     3  N    0.097875   0.320258
     4  N    0.097891   0.320275
     5  C   -0.278372  -0.015632
     6  H    0.227182   0.019796
     7  H    0.167888   0.001196
     8  H    0.214977   0.014119
     9  C   -0.278648  -0.015641
    10  H    0.214956   0.014071
    11  H    0.227202   0.019820
    12  H    0.168072   0.001219
    13  C   -0.278449  -0.015638
    14  H    0.227174   0.019809
    15  H    0.167983   0.001205
    16  H    0.214937   0.014103
    17  C   -0.278353  -0.015630
    18  H    0.214926   0.014125
    19  H    0.227161   0.019790
    20  H    0.167952   0.001197
    21  C   -0.094537  -0.025915
    22  N    0.097879   0.320280
    23  C   -0.278079  -0.015628
    24  H    0.227131   0.019779
    25  H    0.167800   0.001175
    26  H    0.214938   0.014168
    27  C   -0.278394  -0.015641
    28  H    0.214895   0.014096
    29  H    0.227166   0.019809
    30  H    0.167999   0.001209
 Sum of Mulliken charges =   2.00000   1.00000

 Dipole moment (field-independent basis, Debye):
    X=              0.0001    Y=              0.0000    Z=              0.0006  Tot=              0.0006
 Quadrupole moment (field-independent basis, Debye-Ang):
   XX=            -17.5213   YY=            -17.5292   ZZ=            -66.4701
   XY=             -0.0002   XZ=             -0.0014   YZ=              0.0008

 Normal termination of Gaussian 16 at Mon Jan 25 21:31:45 2021.
