 Gaussian 16, Revision A.03,
 Gaussian 16:  EM64L-G16RevA.03 25-Dec-2016

 ----------------------------------------------------------------------
 #P LC-wHPBE/TZVP iop(3/107=0249300000, 3/108=0249300000) scf=(conver=6
 ,fermi,ndamp=35,noincfock,novaracc,vshift=500,xqc)
 ----------------------------------------------------------------------

 ---------
 H18 C9 N3
 ---------
 Symbolic Z-matrix:
 Charge =  2 Multiplicity = 2

                         Standard orientation:
 ---------------------------------------------------------------------
 Center     Atomic      Atomic             Coordinates (Angstroms)
 Number     Number       Type             X           Y           Z
 ---------------------------------------------------------------------
      1          6           0       -0.610975   -0.510745   -0.000115
      2          6           0       -0.136632    0.784354   -0.000118
      3          7           0       -1.625585   -1.358470   -0.000149
      4          7           0       -0.363786    2.086845   -0.000256
      5          6           0       -1.430862   -2.779219    0.245115
      6          1           0       -1.515224   -3.355904   -0.681778
      7          1           0       -0.453738   -2.953483    0.694570
      8          1           0       -2.189816   -3.131940    0.948067
      9          6           0       -2.989097   -0.914073   -0.244915
     10          1           0       -3.471984   -1.599183   -0.946347
     11          1           0       -3.570851   -0.892877    0.682419
     12          1           0       -2.986856    0.077730   -0.695991
     13          6           0        0.702642    3.045751   -0.244739
     14          1           0        1.010678    3.539867    0.682520
     15          1           0        1.561174    2.547880   -0.694397
     16          1           0        0.351203    3.805740   -0.947208
     17          6           0       -1.691678    2.628275    0.244928
     18          1           0       -1.617946    3.461770    0.948079
     19          1           0       -2.148816    2.989837   -0.681963
     20          1           0       -2.331110    1.868946    0.694010
     21          6           0        0.747770   -0.273975   -0.000062
     22          7           0        1.989332   -0.728507    0.000089
     23          6           0        2.286824   -2.131338   -0.245062
     24          1           0        2.563014   -2.644923    0.681638
     25          1           0        1.425660   -2.626427   -0.692731
     26          1           0        3.119218   -2.206604   -0.949371
     27          6           0        3.122102    0.150924    0.245030
     28          1           0        3.807685   -0.330042    0.947323
     29          1           0        3.663088    0.366868   -0.682084
     30          1           0        2.784327    1.083936    0.695089
 ---------------------------------------------------------------------

 SCF Done:  E(ULC-wHPBE) =  -517.079420290     A.U. after   14 cycles

 The electronic state is 2-A.
 Alpha  occ. eigenvalues --  -14.52632 -14.52632 -14.52631 -10.43578 -10.43513
 Alpha  occ. eigenvalues --  -10.43512 -10.34247 -10.34246 -10.34246 -10.34244
 Alpha  occ. eigenvalues --  -10.34244 -10.34243  -1.40124  -1.36146  -1.36146
 Alpha  occ. eigenvalues --   -1.30595  -1.10990  -1.10990  -1.09905  -1.09503
 Alpha  occ. eigenvalues --   -1.09503  -1.07821  -0.93334  -0.93334  -0.92549
 Alpha  occ. eigenvalues --   -0.90412  -0.88585  -0.88585  -0.86292  -0.86291
 Alpha  occ. eigenvalues --   -0.85553  -0.79784  -0.79050  -0.79049  -0.78470
 Alpha  occ. eigenvalues --   -0.77027  -0.77025  -0.76840  -0.76839  -0.76747
 Alpha  occ. eigenvalues --   -0.75102  -0.75101  -0.74181  -0.68787  -0.68787
 Alpha  occ. eigenvalues --   -0.60578
 Alpha virt. eigenvalues --   -0.22600  -0.22598  -0.19503  -0.13677  -0.13675
 Alpha virt. eigenvalues --   -0.13154  -0.12828  -0.11486  -0.11485  -0.09713
 Alpha virt. eigenvalues --   -0.09712  -0.09172  -0.09101  -0.08208  -0.08208

  Beta  occ. eigenvalues --  -14.51973 -14.51973 -14.51971 -10.43627 -10.43563
  Beta  occ. eigenvalues --  -10.43562 -10.34265 -10.34265 -10.34264 -10.34262
  Beta  occ. eigenvalues --  -10.34262 -10.34261  -1.39509  -1.35191  -1.35190
  Beta  occ. eigenvalues --   -1.29675  -1.10845  -1.10844  -1.09746  -1.09373
  Beta  occ. eigenvalues --   -1.09372  -1.07585  -0.92955  -0.92955  -0.92156
  Beta  occ. eigenvalues --   -0.89399  -0.88310  -0.88310  -0.85163  -0.84849
  Beta  occ. eigenvalues --   -0.84848  -0.78894  -0.78893  -0.78860  -0.78362
  Beta  occ. eigenvalues --   -0.76714  -0.76713  -0.76576  -0.76574  -0.76404
  Beta  occ. eigenvalues --   -0.74983  -0.74982  -0.74109  -0.65940  -0.65940
  Beta virt. eigenvalues --   -0.40523  -0.20950  -0.20947  -0.19300  -0.13604
  Beta virt. eigenvalues --   -0.13603  -0.13180  -0.12581  -0.11311  -0.11310
  Beta virt. eigenvalues --   -0.09525  -0.09524  -0.09133  -0.09016  -0.08136

 Mulliken charges and spin densities:
               1          2
     1  C   -0.094121  -0.026470
     2  C   -0.094339  -0.026463
     3  N    0.097610   0.321139
     4  N    0.097626   0.321157
     5  C   -0.278357  -0.015807
     6  H    0.227219   0.019805
     7  H    0.167813   0.001203
     8  H    0.214960   0.014128
     9  C   -0.278633  -0.015816
    10  H    0.214938   0.014080
    11  H    0.227239   0.019829
    12  H    0.167998   0.001226
    13  C   -0.278434  -0.015813
    14  H    0.227211   0.019818
    15  H    0.167908   0.001211
    16  H    0.214919   0.014112
    17  C   -0.278337  -0.015805
    18  H    0.214908   0.014134
    19  H    0.227198   0.019799
    20  H    0.167878   0.001204
    21  C   -0.094191  -0.026495
    22  N    0.097614   0.321162
    23  C   -0.278064  -0.015803
    24  H    0.227168   0.019787
    25  H    0.167725   0.001182
    26  H    0.214920   0.014177
    27  C   -0.278380  -0.015816
    28  H    0.214877   0.014105
    29  H    0.227203   0.019817
    30  H    0.167925   0.001216
 Sum of Mulliken charges =   2.00000   1.00000

 Dipole moment (field-independent basis, Debye):
    X=              0.0001    Y=              0.0000    Z=              0.0006  Tot=              0.0006
 Quadrupole moment (field-independent basis, Debye-Ang):
   XX=            -17.5245   YY=            -17.5324   ZZ=            -66.4657
   XY=             -0.0002   XZ=             -0.0014   YZ=              0.0008

 Normal termination of Gaussian 16 at Mon Jan 25 21:49:50 2021.
