 Gaussian 16, Revision A.03,
 Gaussian 16:  EM64L-G16RevA.03 25-Dec-2016

 ----------------------------------------------------------------------
 #P LC-wHPBE/TZVP iop(3/107=0247700000, 3/108=0247700000) scf=(conver=6
 ,fermi,ndamp=35,noincfock,novaracc,vshift=500,xqc)
 ----------------------------------------------------------------------

 ---------
 H18 C9 N3
 ---------
 Symbolic Z-matrix:
 Charge =  2 Multiplicity = 2

                         Standard orientation:
 ---------------------------------------------------------------------
 Center     Atomic      Atomic             Coordinates (Angstroms)
 Number     Number       Type             X           Y           Z
 ---------------------------------------------------------------------
      1          6           0       -0.610975   -0.510745   -0.000115
      2          6           0       -0.136632    0.784354   -0.000118
      3          7           0       -1.625585   -1.358470   -0.000149
      4          7           0       -0.363786    2.086845   -0.000256
      5          6           0       -1.430862   -2.779219    0.245115
      6          1           0       -1.515224   -3.355904   -0.681778
      7          1           0       -0.453738   -2.953483    0.694570
      8          1           0       -2.189816   -3.131940    0.948067
      9          6           0       -2.989097   -0.914073   -0.244915
     10          1           0       -3.471984   -1.599183   -0.946347
     11          1           0       -3.570851   -0.892877    0.682419
     12          1           0       -2.986856    0.077730   -0.695991
     13          6           0        0.702642    3.045751   -0.244739
     14          1           0        1.010678    3.539867    0.682520
     15          1           0        1.561174    2.547880   -0.694397
     16          1           0        0.351203    3.805740   -0.947208
     17          6           0       -1.691678    2.628275    0.244928
     18          1           0       -1.617946    3.461770    0.948079
     19          1           0       -2.148816    2.989837   -0.681963
     20          1           0       -2.331110    1.868946    0.694010
     21          6           0        0.747770   -0.273975   -0.000062
     22          7           0        1.989332   -0.728507    0.000089
     23          6           0        2.286824   -2.131338   -0.245062
     24          1           0        2.563014   -2.644923    0.681638
     25          1           0        1.425660   -2.626427   -0.692731
     26          1           0        3.119218   -2.206604   -0.949371
     27          6           0        3.122102    0.150924    0.245030
     28          1           0        3.807685   -0.330042    0.947323
     29          1           0        3.663088    0.366868   -0.682084
     30          1           0        2.784327    1.083936    0.695089
 ---------------------------------------------------------------------

 SCF Done:  E(ULC-wHPBE) =  -517.078138697     A.U. after   14 cycles

 The electronic state is 2-A.
 Alpha  occ. eigenvalues --  -14.52540 -14.52540 -14.52539 -10.43481 -10.43416
 Alpha  occ. eigenvalues --  -10.43415 -10.34158 -10.34157 -10.34157 -10.34155
 Alpha  occ. eigenvalues --  -10.34155 -10.34154  -1.40025  -1.36052  -1.36051
 Alpha  occ. eigenvalues --   -1.30503  -1.10904  -1.10904  -1.09820  -1.09421
 Alpha  occ. eigenvalues --   -1.09420  -1.07741  -0.93262  -0.93262  -0.92480
 Alpha  occ. eigenvalues --   -0.90335  -0.88519  -0.88519  -0.86221  -0.86220
 Alpha  occ. eigenvalues --   -0.85491  -0.79724  -0.78989  -0.78988  -0.78410
 Alpha  occ. eigenvalues --   -0.76968  -0.76966  -0.76783  -0.76782  -0.76687
 Alpha  occ. eigenvalues --   -0.75044  -0.75043  -0.74124  -0.68733  -0.68732
 Alpha  occ. eigenvalues --   -0.60534
 Alpha virt. eigenvalues --   -0.22634  -0.22632  -0.19533  -0.13705  -0.13703
 Alpha virt. eigenvalues --   -0.13192  -0.12858  -0.11520  -0.11518  -0.09750
 Alpha virt. eigenvalues --   -0.09748  -0.09201  -0.09135  -0.08238  -0.08238

  Beta  occ. eigenvalues --  -14.51882 -14.51882 -14.51880 -10.43529 -10.43465
  Beta  occ. eigenvalues --  -10.43465 -10.34176 -10.34175 -10.34175 -10.34173
  Beta  occ. eigenvalues --  -10.34173 -10.34172  -1.39410  -1.35097  -1.35097
  Beta  occ. eigenvalues --   -1.29586  -1.10758  -1.10758  -1.09661  -1.09290
  Beta  occ. eigenvalues --   -1.09289  -1.07505  -0.92884  -0.92884  -0.92087
  Beta  occ. eigenvalues --   -0.89325  -0.88244  -0.88244  -0.85101  -0.84784
  Beta  occ. eigenvalues --   -0.84784  -0.78833  -0.78832  -0.78806  -0.78301
  Beta  occ. eigenvalues --   -0.76657  -0.76656  -0.76518  -0.76516  -0.76346
  Beta  occ. eigenvalues --   -0.74925  -0.74924  -0.74053  -0.65898  -0.65898
  Beta virt. eigenvalues --   -0.40539  -0.20990  -0.20987  -0.19329  -0.13632
  Beta virt. eigenvalues --   -0.13631  -0.13218  -0.12611  -0.11344  -0.11343
  Beta virt. eigenvalues --   -0.09562  -0.09561  -0.09162  -0.09050  -0.08165

 Mulliken charges and spin densities:
               1          2
     1  C   -0.094302  -0.026171
     2  C   -0.094519  -0.026164
     3  N    0.097748   0.320685
     4  N    0.097765   0.320702
     5  C   -0.278363  -0.015717
     6  H    0.227200   0.019800
     7  H    0.167851   0.001199
     8  H    0.214968   0.014123
     9  C   -0.278639  -0.015726
    10  H    0.214947   0.014075
    11  H    0.227219   0.019824
    12  H    0.168035   0.001223
    13  C   -0.278440  -0.015723
    14  H    0.227191   0.019813
    15  H    0.167946   0.001208
    16  H    0.214928   0.014108
    17  C   -0.278344  -0.015715
    18  H    0.214917   0.014129
    19  H    0.227179   0.019794
    20  H    0.167916   0.001200
    21  C   -0.094372  -0.026196
    22  N    0.097752   0.320707
    23  C   -0.278070  -0.015713
    24  H    0.227148   0.019782
    25  H    0.167763   0.001179
    26  H    0.214929   0.014172
    27  C   -0.278386  -0.015726
    28  H    0.214886   0.014100
    29  H    0.227183   0.019813
    30  H    0.167963   0.001212
 Sum of Mulliken charges =   2.00000   1.00000

 Dipole moment (field-independent basis, Debye):
    X=              0.0001    Y=              0.0000    Z=              0.0006  Tot=              0.0006
 Quadrupole moment (field-independent basis, Debye-Ang):
   XX=            -17.5229   YY=            -17.5308   ZZ=            -66.4680
   XY=             -0.0002   XZ=             -0.0014   YZ=              0.0008

 Normal termination of Gaussian 16 at Mon Jan 25 21:55:51 2021.
