 Gaussian 16, Revision A.03,
 Gaussian 16:  EM64L-G16RevA.03 25-Dec-2016

 ----------------------------------------------------------------------
 #P LC-wHPBE/TZVP iop(3/107=0221900000, 3/108=0221900000) scf=(conver=6
 ,fermi,ndamp=35,noincfock,novaracc,vshift=500,xqc)
 ----------------------------------------------------------------------

 ---------
 H18 C9 N3
 ---------
 Symbolic Z-matrix:
 Charge =  2 Multiplicity = 2

                         Standard orientation:
 ---------------------------------------------------------------------
 Center     Atomic      Atomic             Coordinates (Angstroms)
 Number     Number       Type             X           Y           Z
 ---------------------------------------------------------------------
      1          6           0       -0.610975   -0.510745   -0.000115
      2          6           0       -0.136632    0.784354   -0.000118
      3          7           0       -1.625585   -1.358470   -0.000149
      4          7           0       -0.363786    2.086845   -0.000256
      5          6           0       -1.430862   -2.779219    0.245115
      6          1           0       -1.515224   -3.355904   -0.681778
      7          1           0       -0.453738   -2.953483    0.694570
      8          1           0       -2.189816   -3.131940    0.948067
      9          6           0       -2.989097   -0.914073   -0.244915
     10          1           0       -3.471984   -1.599183   -0.946347
     11          1           0       -3.570851   -0.892877    0.682419
     12          1           0       -2.986856    0.077730   -0.695991
     13          6           0        0.702642    3.045751   -0.244739
     14          1           0        1.010678    3.539867    0.682520
     15          1           0        1.561174    2.547880   -0.694397
     16          1           0        0.351203    3.805740   -0.947208
     17          6           0       -1.691678    2.628275    0.244928
     18          1           0       -1.617946    3.461770    0.948079
     19          1           0       -2.148816    2.989837   -0.681963
     20          1           0       -2.331110    1.868946    0.694010
     21          6           0        0.747770   -0.273975   -0.000062
     22          7           0        1.989332   -0.728507    0.000089
     23          6           0        2.286824   -2.131338   -0.245062
     24          1           0        2.563014   -2.644923    0.681638
     25          1           0        1.425660   -2.626427   -0.692731
     26          1           0        3.119218   -2.206604   -0.949371
     27          6           0        3.122102    0.150924    0.245030
     28          1           0        3.807685   -0.330042    0.947323
     29          1           0        3.663088    0.366868   -0.682084
     30          1           0        2.784327    1.083936    0.695089
 ---------------------------------------------------------------------

 SCF Done:  E(ULC-wHPBE) =  -517.056994052     A.U. after   14 cycles

 The electronic state is 2-A.
 Alpha  occ. eigenvalues --  -14.51054 -14.51054 -14.51053 -10.41913 -10.41849
 Alpha  occ. eigenvalues --  -10.41849 -10.32716 -10.32715 -10.32715 -10.32713
 Alpha  occ. eigenvalues --  -10.32713 -10.32712  -1.38419  -1.34514  -1.34513
 Alpha  occ. eigenvalues --   -1.29001  -1.09492  -1.09492  -1.08425  -1.08060
 Alpha  occ. eigenvalues --   -1.08060  -1.06423  -0.92067  -0.92067  -0.91319
 Alpha  occ. eigenvalues --   -0.89062  -0.87410  -0.87410  -0.85037  -0.85037
 Alpha  occ. eigenvalues --   -0.84449  -0.78709  -0.77978  -0.77977  -0.77392
 Alpha  occ. eigenvalues --   -0.75970  -0.75968  -0.75816  -0.75814  -0.75683
 Alpha  occ. eigenvalues --   -0.74072  -0.74071  -0.73172  -0.67814  -0.67814
 Alpha  occ. eigenvalues --   -0.59797
 Alpha virt. eigenvalues --   -0.23211  -0.23209  -0.20053  -0.14203  -0.14201
 Alpha virt. eigenvalues --   -0.13853  -0.13379  -0.12102  -0.12101  -0.10383
 Alpha virt. eigenvalues --   -0.10382  -0.09727  -0.09719  -0.08763  -0.08762

  Beta  occ. eigenvalues --  -14.50412 -14.50412 -14.50410 -10.41954 -10.41890
  Beta  occ. eigenvalues --  -10.41890 -10.32732 -10.32732 -10.32732 -10.32730
  Beta  occ. eigenvalues --  -10.32729 -10.32729  -1.37808  -1.33585  -1.33585
  Beta  occ. eigenvalues --   -1.28132  -1.09346  -1.09345  -1.08269  -1.07923
  Beta  occ. eigenvalues --   -1.07923  -1.06192  -0.91706  -0.91706  -0.90942
  Beta  occ. eigenvalues --   -0.88089  -0.87143  -0.87143  -0.84072  -0.83705
  Beta  occ. eigenvalues --   -0.83705  -0.77892  -0.77823  -0.77822  -0.77287
  Beta  occ. eigenvalues --   -0.75702  -0.75701  -0.75541  -0.75539  -0.75369
  Beta  occ. eigenvalues --   -0.73955  -0.73954  -0.73103  -0.65191  -0.65191
  Beta virt. eigenvalues --   -0.40829  -0.21677  -0.21674  -0.19847  -0.14124
  Beta virt. eigenvalues --   -0.14123  -0.13871  -0.13134  -0.11912  -0.11911
  Beta virt. eigenvalues --   -0.10200  -0.10199  -0.09674  -0.09639  -0.08684

 Mulliken charges and spin densities:
               1          2
     1  C   -0.096641  -0.021300
     2  C   -0.096849  -0.021295
     3  N    0.099481   0.313258
     4  N    0.099495   0.313275
     5  C   -0.278945  -0.014241
     6  H    0.227047   0.019739
     7  H    0.168617   0.001143
     8  H    0.215239   0.014044
     9  C   -0.279218  -0.014250
    10  H    0.215217   0.013996
    11  H    0.227066   0.019762
    12  H    0.168799   0.001166
    13  C   -0.279020  -0.014247
    14  H    0.227038   0.019751
    15  H    0.168711   0.001151
    16  H    0.215198   0.014028
    17  C   -0.278926  -0.014239
    18  H    0.215187   0.014050
    19  H    0.227026   0.019732
    20  H    0.168682   0.001144
    21  C   -0.096705  -0.021323
    22  N    0.099481   0.313279
    23  C   -0.278654  -0.014238
    24  H    0.226996   0.019721
    25  H    0.168531   0.001122
    26  H    0.215199   0.014093
    27  C   -0.278965  -0.014250
    28  H    0.215156   0.014021
    29  H    0.227030   0.019751
    30  H    0.168728   0.001156
 Sum of Mulliken charges =   2.00000   1.00000

 Dipole moment (field-independent basis, Debye):
    X=              0.0001    Y=              0.0000    Z=              0.0006  Tot=              0.0006
 Quadrupole moment (field-independent basis, Debye-Ang):
   XX=            -17.4911   YY=            -17.4990   ZZ=            -66.5040
   XY=             -0.0002   XZ=             -0.0014   YZ=              0.0008

 Normal termination of Gaussian 16 at Mon Jan 25 21:00:19 2021.
