 Gaussian 16, Revision A.03,
 Gaussian 16:  EM64L-G16RevA.03 25-Dec-2016

 ----------------------------------------------------------------------
 #P LC-wHPBE/TZVP iop(3/107=0236900000, 3/108=0236900000) scf=(conver=6
 ,fermi,ndamp=35,noincfock,novaracc,vshift=500,xqc)
 ----------------------------------------------------------------------

 ---------
 H18 C9 N3
 ---------
 Symbolic Z-matrix:
 Charge =  2 Multiplicity = 2

                         Standard orientation:
 ---------------------------------------------------------------------
 Center     Atomic      Atomic             Coordinates (Angstroms)
 Number     Number       Type             X           Y           Z
 ---------------------------------------------------------------------
      1          6           0       -0.610975   -0.510745   -0.000115
      2          6           0       -0.136632    0.784354   -0.000118
      3          7           0       -1.625585   -1.358470   -0.000149
      4          7           0       -0.363786    2.086845   -0.000256
      5          6           0       -1.430862   -2.779219    0.245115
      6          1           0       -1.515224   -3.355904   -0.681778
      7          1           0       -0.453738   -2.953483    0.694570
      8          1           0       -2.189816   -3.131940    0.948067
      9          6           0       -2.989097   -0.914073   -0.244915
     10          1           0       -3.471984   -1.599183   -0.946347
     11          1           0       -3.570851   -0.892877    0.682419
     12          1           0       -2.986856    0.077730   -0.695991
     13          6           0        0.702642    3.045751   -0.244739
     14          1           0        1.010678    3.539867    0.682520
     15          1           0        1.561174    2.547880   -0.694397
     16          1           0        0.351203    3.805740   -0.947208
     17          6           0       -1.691678    2.628275    0.244928
     18          1           0       -1.617946    3.461770    0.948079
     19          1           0       -2.148816    2.989837   -0.681963
     20          1           0       -2.331110    1.868946    0.694010
     21          6           0        0.747770   -0.273975   -0.000062
     22          7           0        1.989332   -0.728507    0.000089
     23          6           0        2.286824   -2.131338   -0.245062
     24          1           0        2.563014   -2.644923    0.681638
     25          1           0        1.425660   -2.626427   -0.692731
     26          1           0        3.119218   -2.206604   -0.949371
     27          6           0        3.122102    0.150924    0.245030
     28          1           0        3.807685   -0.330042    0.947323
     29          1           0        3.663088    0.366868   -0.682084
     30          1           0        2.784327    1.083936    0.695089
 ---------------------------------------------------------------------

 SCF Done:  E(ULC-wHPBE) =  -517.069388913     A.U. after   14 cycles

 The electronic state is 2-A.
 Alpha  occ. eigenvalues --  -14.51920 -14.51919 -14.51918 -10.42825 -10.42760
 Alpha  occ. eigenvalues --  -10.42760 -10.33554 -10.33554 -10.33554 -10.33552
 Alpha  occ. eigenvalues --  -10.33551 -10.33551  -1.39354  -1.35410  -1.35410
 Alpha  occ. eigenvalues --   -1.29878  -1.10318  -1.10318  -1.09241  -1.08857
 Alpha  occ. eigenvalues --   -1.08856  -1.07195  -0.92770  -0.92770  -0.92002
 Alpha  occ. eigenvalues --   -0.89811  -0.88063  -0.88063  -0.85733  -0.85733
 Alpha  occ. eigenvalues --   -0.85063  -0.79309  -0.78574  -0.78573  -0.77993
 Alpha  occ. eigenvalues --   -0.76558  -0.76556  -0.76387  -0.76386  -0.76275
 Alpha  occ. eigenvalues --   -0.74645  -0.74644  -0.73733  -0.68357  -0.68357
 Alpha  occ. eigenvalues --   -0.60233
 Alpha virt. eigenvalues --   -0.22867  -0.22865  -0.19740  -0.13903  -0.13901
 Alpha virt. eigenvalues --   -0.13460  -0.13067  -0.11753  -0.11752  -0.10005
 Alpha virt. eigenvalues --   -0.10004  -0.09408  -0.09373  -0.08447  -0.08447

  Beta  occ. eigenvalues --  -14.51268 -14.51268 -14.51266 -10.42870 -10.42807
  Beta  occ. eigenvalues --  -10.42806 -10.33572 -10.33571 -10.33571 -10.33569
  Beta  occ. eigenvalues --  -10.33569 -10.33568  -1.38741  -1.34467  -1.34467
  Beta  occ. eigenvalues --   -1.28982  -1.10172  -1.10172  -1.09083  -1.08723
  Beta  occ. eigenvalues --   -1.08723  -1.06961  -0.92399  -0.92399  -0.91616
  Beta  occ. eigenvalues --   -0.88818  -0.87792  -0.87792  -0.84679  -0.84343
  Beta  occ. eigenvalues --   -0.84342  -0.78433  -0.78419  -0.78418  -0.77886
  Beta  occ. eigenvalues --   -0.76266  -0.76265  -0.76117  -0.76116  -0.75945
  Beta  occ. eigenvalues --   -0.74527  -0.74526  -0.73663  -0.65610  -0.65610
  Beta virt. eigenvalues --   -0.40655  -0.21267  -0.21265  -0.19536  -0.13827
  Beta virt. eigenvalues --   -0.13826  -0.13482  -0.12820  -0.11571  -0.11570
  Beta virt. eigenvalues --   -0.09820  -0.09819  -0.09366  -0.09286  -0.08372

 Mulliken charges and spin densities:
               1          2
     1  C   -0.095417  -0.024142
     2  C   -0.095630  -0.024136
     3  N    0.098592   0.317596
     4  N    0.098607   0.317613
     5  C   -0.278494  -0.015103
     6  H    0.227098   0.019773
     7  H    0.168137   0.001176
     8  H    0.215051   0.014091
     9  C   -0.278769  -0.015112
    10  H    0.215030   0.014042
    11  H    0.227117   0.019797
    12  H    0.168320   0.001199
    13  C   -0.278571  -0.015109
    14  H    0.227089   0.019786
    15  H    0.168232   0.001184
    16  H    0.215010   0.014075
    17  C   -0.278475  -0.015101
    18  H    0.215000   0.014096
    19  H    0.227077   0.019767
    20  H    0.168202   0.001177
    21  C   -0.095484  -0.024166
    22  N    0.098594   0.317618
    23  C   -0.278202  -0.015100
    24  H    0.227046   0.019755
    25  H    0.168050   0.001155
    26  H    0.215012   0.014139
    27  C   -0.278516  -0.015112
    28  H    0.214968   0.014067
    29  H    0.227081   0.019785
    30  H    0.168248   0.001188
 Sum of Mulliken charges =   2.00000   1.00000

 Dipole moment (field-independent basis, Debye):
    X=              0.0001    Y=              0.0000    Z=              0.0006  Tot=              0.0006
 Quadrupole moment (field-independent basis, Debye-Ang):
   XX=            -17.5109   YY=            -17.5188   ZZ=            -66.4834
   XY=             -0.0002   XZ=             -0.0014   YZ=              0.0008

 Normal termination of Gaussian 16 at Mon Jan 25 21:37:54 2021.
