 Gaussian 16, Revision A.03,
 Gaussian 16:  EM64L-G16RevA.03 25-Dec-2016

 ----------------------------------------------------------------------
 #P LC-wHPBE/TZVP iop(3/107=0247300000, 3/108=0247300000) scf=(conver=6
 ,fermi,ndamp=35,noincfock,novaracc,vshift=500,xqc)
 ----------------------------------------------------------------------

 ---------
 H18 C9 N3
 ---------
 Symbolic Z-matrix:
 Charge =  1 Multiplicity = 1

                         Standard orientation:
 ---------------------------------------------------------------------
 Center     Atomic      Atomic             Coordinates (Angstroms)
 Number     Number       Type             X           Y           Z
 ---------------------------------------------------------------------
      1          6           0       -0.610975   -0.510745   -0.000115
      2          6           0       -0.136632    0.784354   -0.000118
      3          7           0       -1.625585   -1.358470   -0.000149
      4          7           0       -0.363786    2.086845   -0.000256
      5          6           0       -1.430862   -2.779219    0.245115
      6          1           0       -1.515224   -3.355904   -0.681778
      7          1           0       -0.453738   -2.953483    0.694570
      8          1           0       -2.189816   -3.131940    0.948067
      9          6           0       -2.989097   -0.914073   -0.244915
     10          1           0       -3.471984   -1.599183   -0.946347
     11          1           0       -3.570851   -0.892877    0.682419
     12          1           0       -2.986856    0.077730   -0.695991
     13          6           0        0.702642    3.045751   -0.244739
     14          1           0        1.010678    3.539867    0.682520
     15          1           0        1.561174    2.547880   -0.694397
     16          1           0        0.351203    3.805740   -0.947208
     17          6           0       -1.691678    2.628275    0.244928
     18          1           0       -1.617946    3.461770    0.948079
     19          1           0       -2.148816    2.989837   -0.681963
     20          1           0       -2.331110    1.868946    0.694010
     21          6           0        0.747770   -0.273975   -0.000062
     22          7           0        1.989332   -0.728507    0.000089
     23          6           0        2.286824   -2.131338   -0.245062
     24          1           0        2.563014   -2.644923    0.681638
     25          1           0        1.425660   -2.626427   -0.692731
     26          1           0        3.119218   -2.206604   -0.949371
     27          6           0        3.122102    0.150924    0.245030
     28          1           0        3.807685   -0.330042    0.947323
     29          1           0        3.663088    0.366868   -0.682084
     30          1           0        2.784327    1.083936    0.695089
 ---------------------------------------------------------------------

 SCF Done:  E(RLC-wHPBE) =  -517.483685806     A.U. after   10 cycles

 The electronic state is 1-A.
 Alpha  occ. eigenvalues --  -14.31128 -14.31127 -14.31126 -10.24448 -10.24383
 Alpha  occ. eigenvalues --  -10.24382 -10.18700 -10.18699 -10.18699 -10.18697
 Alpha  occ. eigenvalues --  -10.18697 -10.18696  -1.20621  -1.16802  -1.16802
 Alpha  occ. eigenvalues --   -1.11121  -0.94319  -0.94318  -0.93488  -0.92172
 Alpha  occ. eigenvalues --   -0.92171  -0.90289  -0.76576  -0.76576  -0.75824
 Alpha  occ. eigenvalues --   -0.71748  -0.71345  -0.71345  -0.68724  -0.68723
 Alpha  occ. eigenvalues --   -0.68644  -0.63013  -0.63012  -0.62847  -0.62802
 Alpha  occ. eigenvalues --   -0.61660  -0.61658  -0.61413  -0.60271  -0.60270
 Alpha  occ. eigenvalues --   -0.58762  -0.58566  -0.58564  -0.50340  -0.50340
 Alpha  occ. eigenvalues --   -0.40579
 Alpha virt. eigenvalues --   -0.04147  -0.04144  -0.04068  -0.00532  -0.00530
 Alpha virt. eigenvalues --    0.00847   0.02282   0.02283   0.02316   0.04978
 Alpha virt. eigenvalues --    0.05066   0.05066   0.05169   0.05170   0.05431

 Mulliken charges:
               1
     1  C   -0.116591
     2  C   -0.116812
     3  N    0.004443
     4  N    0.004463
     5  C   -0.267419
     6  H    0.173899
     7  H    0.149771
     8  H    0.166529
     9  C   -0.267648
    10  H    0.166532
    11  H    0.173912
    12  H    0.149922
    13  C   -0.267475
    14  H    0.173882
    15  H    0.149851
    16  H    0.166497
    17  C   -0.267397
    18  H    0.166475
    19  H    0.173880
    20  H    0.149833
    21  C   -0.116646
    22  N    0.004459
    23  C   -0.267163
    24  H    0.173849
    25  H    0.149708
    26  H    0.166466
    27  C   -0.267424
    28  H    0.166463
    29  H    0.173876
    30  H    0.149865
 Sum of Mulliken charges =   1.00000

 Dipole moment (field-independent basis, Debye):
    X=             -0.0004    Y=             -0.0003    Z=              0.0007  Tot=              0.0008
 Quadrupole moment (field-independent basis, Debye-Ang):
   XX=            -44.2062   YY=            -44.2101   ZZ=            -71.9250
   XY=              0.0015   XZ=              0.0002   YZ=              0.0002

 1\1\GINC-CNODE237\SP\RLC-wHPBE\TZVP\C9H18N3(1+)\RDU230\25-Jan-2021\0\\
 #P LC-wHPBE/TZVP iop(3/107=0247300000, 3/108=0247300000) scf=(conver=6
 ,fermi,ndamp=35,noincfock,novaracc,vshift=500,xqc)\\H18 C9 N3\\1,1\C,0
 ,-0.610862,0.51088,0.000115\C,0,-0.136805,-0.784324,0.000118\N,0,-1.62
 5284,1.358829,0.000149\N,0,-0.364248,-2.086765,0.000256\C,0,-1.430247,
 2.779535,-0.245115\H,0,-1.514482,3.356239,0.681778\H,0,-0.453085,2.953
 583,-0.69457\H,0,-2.189123,3.132424,-0.948067\C,0,-2.988895,0.914734,0
 .244915\H,0,-3.47163,1.599951,0.946347\H,0,-3.570653,0.893667,-0.68241

 Normal termination of Gaussian 16 at Mon Jan 25 21:40:01 2021.
