 Gaussian 16, Revision A.03,
 Gaussian 16:  EM64L-G16RevA.03 25-Dec-2016

 ----------------------------------------------------------------------
 #P LC-wHPBE/TZVP iop(3/107=0260400000, 3/108=0260400000) scf=(conver=6
 ,fermi,ndamp=35,noincfock,novaracc,vshift=500,xqc)
 ----------------------------------------------------------------------

 ---------
 H18 C9 N3
 ---------
 Symbolic Z-matrix:
 Charge =  2 Multiplicity = 2

                         Standard orientation:
 ---------------------------------------------------------------------
 Center     Atomic      Atomic             Coordinates (Angstroms)
 Number     Number       Type             X           Y           Z
 ---------------------------------------------------------------------
      1          6           0       -0.610975   -0.510745   -0.000115
      2          6           0       -0.136632    0.784354   -0.000118
      3          7           0       -1.625585   -1.358470   -0.000149
      4          7           0       -0.363786    2.086845   -0.000256
      5          6           0       -1.430862   -2.779219    0.245115
      6          1           0       -1.515224   -3.355904   -0.681778
      7          1           0       -0.453738   -2.953483    0.694570
      8          1           0       -2.189816   -3.131940    0.948067
      9          6           0       -2.989097   -0.914073   -0.244915
     10          1           0       -3.471984   -1.599183   -0.946347
     11          1           0       -3.570851   -0.892877    0.682419
     12          1           0       -2.986856    0.077730   -0.695991
     13          6           0        0.702642    3.045751   -0.244739
     14          1           0        1.010678    3.539867    0.682520
     15          1           0        1.561174    2.547880   -0.694397
     16          1           0        0.351203    3.805740   -0.947208
     17          6           0       -1.691678    2.628275    0.244928
     18          1           0       -1.617946    3.461770    0.948079
     19          1           0       -2.148816    2.989837   -0.681963
     20          1           0       -2.331110    1.868946    0.694010
     21          6           0        0.747770   -0.273975   -0.000062
     22          7           0        1.989332   -0.728507    0.000089
     23          6           0        2.286824   -2.131338   -0.245062
     24          1           0        2.563014   -2.644923    0.681638
     25          1           0        1.425660   -2.626427   -0.692731
     26          1           0        3.119218   -2.206604   -0.949371
     27          6           0        3.122102    0.150924    0.245030
     28          1           0        3.807685   -0.330042    0.947323
     29          1           0        3.663088    0.366868   -0.682084
     30          1           0        2.784327    1.083936    0.695089
 ---------------------------------------------------------------------

 SCF Done:  E(ULC-wHPBE) =  -517.088194578     A.U. after   14 cycles

 The electronic state is 2-A.
 Alpha  occ. eigenvalues --  -14.53268 -14.53267 -14.53266 -10.44251 -10.44185
 Alpha  occ. eigenvalues --  -10.44185 -10.34866 -10.34866 -10.34866 -10.34863
 Alpha  occ. eigenvalues --  -10.34863 -10.34863  -1.40810  -1.36801  -1.36801
 Alpha  occ. eigenvalues --   -1.31230  -1.11583  -1.11582  -1.10490  -1.10072
 Alpha  occ. eigenvalues --   -1.10071  -1.08371  -0.93826  -0.93826  -0.93027
 Alpha  occ. eigenvalues --   -0.90935  -0.89040  -0.89040  -0.86778  -0.86778
 Alpha  occ. eigenvalues --   -0.85979  -0.80193  -0.79461  -0.79460  -0.78883
 Alpha  occ. eigenvalues --   -0.77435  -0.77433  -0.77232  -0.77230  -0.77156
 Alpha  occ. eigenvalues --   -0.75498  -0.75497  -0.74568  -0.69158  -0.69157
 Alpha  occ. eigenvalues --   -0.60876
 Alpha virt. eigenvalues --   -0.22375  -0.22373  -0.19306  -0.13490  -0.13488
 Alpha virt. eigenvalues --   -0.12894  -0.12629  -0.11264  -0.11263  -0.09465
 Alpha virt. eigenvalues --   -0.09464  -0.08976  -0.08874  -0.08010  -0.08009

  Beta  occ. eigenvalues --  -14.52602 -14.52602 -14.52600 -10.44303 -10.44239
  Beta  occ. eigenvalues --  -10.44239 -10.34885 -10.34885 -10.34885 -10.34882
  Beta  occ. eigenvalues --  -10.34882 -10.34881  -1.40193  -1.35833  -1.35833
  Beta  occ. eigenvalues --   -1.30287  -1.11437  -1.11437  -1.10330  -1.09944
  Beta  occ. eigenvalues --   -1.09944  -1.08133  -0.93440  -0.93440  -0.92626
  Beta  occ. eigenvalues --   -0.89900  -0.88761  -0.88761  -0.85582  -0.85286
  Beta  occ. eigenvalues --   -0.85285  -0.79305  -0.79304  -0.79228  -0.78773
  Beta  occ. eigenvalues --   -0.77102  -0.77101  -0.76973  -0.76971  -0.76802
  Beta  occ. eigenvalues --   -0.75377  -0.75376  -0.74496  -0.66225  -0.66225
  Beta virt. eigenvalues --   -0.40412  -0.20680  -0.20677  -0.19104  -0.13420
  Beta virt. eigenvalues --   -0.13419  -0.12923  -0.12381  -0.11095  -0.11094
  Beta virt. eigenvalues --   -0.09276  -0.09275  -0.08939  -0.08790  -0.07939

 Mulliken charges and spin densities:
               1          2
     1  C   -0.092763  -0.028534
     2  C   -0.092986  -0.028527
     3  N    0.096556   0.324270
     4  N    0.096573   0.324288
     5  C   -0.278404  -0.016428
     6  H    0.227384   0.019835
     7  H    0.167579   0.001227
     8  H    0.214924   0.014161
     9  C   -0.278682  -0.016437
    10  H    0.214903   0.014113
    11  H    0.227404   0.019859
    12  H    0.167765   0.001250
    13  C   -0.278482  -0.016435
    14  H    0.227376   0.019848
    15  H    0.167674   0.001236
    16  H    0.214884   0.014145
    17  C   -0.278384  -0.016426
    18  H    0.214873   0.014167
    19  H    0.227363   0.019829
    20  H    0.167643   0.001228
    21  C   -0.092836  -0.028560
    22  N    0.096561   0.324293
    23  C   -0.278110  -0.016424
    24  H    0.227333   0.019817
    25  H    0.167490   0.001206
    26  H    0.214885   0.014210
    27  C   -0.278428  -0.016437
    28  H    0.214842   0.014138
    29  H    0.227368   0.019848
    30  H    0.167691   0.001240
 Sum of Mulliken charges =   2.00000   1.00000

 Dipole moment (field-independent basis, Debye):
    X=              0.0001    Y=              0.0000    Z=              0.0006  Tot=              0.0006
 Quadrupole moment (field-independent basis, Debye-Ang):
   XX=            -17.5344   YY=            -17.5423   ZZ=            -66.4494
   XY=             -0.0002   XZ=             -0.0013   YZ=              0.0008

 Normal termination of Gaussian 16 at Mon Jan 25 21:25:46 2021.
