 Gaussian 16, Revision A.03,
 Gaussian 16:  EM64L-G16RevA.03 25-Dec-2016

 ----------------------------------------------------------------------
 #P LC-wHPBE/TZVP iop(3/107=0156200000, 3/108=0156200000) scf=(conver=6
 ,fermi,ndamp=35,noincfock,novaracc,vshift=500,xqc)
 ----------------------------------------------------------------------

 ---------
 H18 C9 N3
 ---------
 Symbolic Z-matrix:
 Charge =  2 Multiplicity = 2

                         Standard orientation:
 ---------------------------------------------------------------------
 Center     Atomic      Atomic             Coordinates (Angstroms)
 Number     Number       Type             X           Y           Z
 ---------------------------------------------------------------------
      1          6           0       -0.610975   -0.510745   -0.000115
      2          6           0       -0.136632    0.784354   -0.000118
      3          7           0       -1.625585   -1.358470   -0.000149
      4          7           0       -0.363786    2.086845   -0.000256
      5          6           0       -1.430862   -2.779219    0.245115
      6          1           0       -1.515224   -3.355904   -0.681778
      7          1           0       -0.453738   -2.953483    0.694570
      8          1           0       -2.189816   -3.131940    0.948067
      9          6           0       -2.989097   -0.914073   -0.244915
     10          1           0       -3.471984   -1.599183   -0.946347
     11          1           0       -3.570851   -0.892877    0.682419
     12          1           0       -2.986856    0.077730   -0.695991
     13          6           0        0.702642    3.045751   -0.244739
     14          1           0        1.010678    3.539867    0.682520
     15          1           0        1.561174    2.547880   -0.694397
     16          1           0        0.351203    3.805740   -0.947208
     17          6           0       -1.691678    2.628275    0.244928
     18          1           0       -1.617946    3.461770    0.948079
     19          1           0       -2.148816    2.989837   -0.681963
     20          1           0       -2.331110    1.868946    0.694010
     21          6           0        0.747770   -0.273975   -0.000062
     22          7           0        1.989332   -0.728507    0.000089
     23          6           0        2.286824   -2.131338   -0.245062
     24          1           0        2.563014   -2.644923    0.681638
     25          1           0        1.425660   -2.626427   -0.692731
     26          1           0        3.119218   -2.206604   -0.949371
     27          6           0        3.122102    0.150924    0.245030
     28          1           0        3.807685   -0.330042    0.947323
     29          1           0        3.663088    0.366868   -0.682084
     30          1           0        2.784327    1.083936    0.695089
 ---------------------------------------------------------------------

 SCF Done:  E(ULC-wHPBE) =  -517.001843260     A.U. after   14 cycles

 The electronic state is 2-A.
 Alpha  occ. eigenvalues --  -14.47220 -14.47220 -14.47219 -10.37923 -10.37859
 Alpha  occ. eigenvalues --  -10.37859 -10.29034 -10.29034 -10.29034 -10.29031
 Alpha  occ. eigenvalues --  -10.29031 -10.29031  -1.34315  -1.30546  -1.30546
 Alpha  occ. eigenvalues --   -1.25065  -1.05749  -1.05749  -1.04723  -1.04414
 Alpha  occ. eigenvalues --   -1.04414  -1.02868  -0.88754  -0.88754  -0.88080
 Alpha  occ. eigenvalues --   -0.85548  -0.84286  -0.84286  -0.81739  -0.81738
 Alpha  occ. eigenvalues --   -0.81482  -0.75740  -0.75080  -0.75079  -0.74467
 Alpha  occ. eigenvalues --   -0.73128  -0.73126  -0.72994  -0.72992  -0.72813
 Alpha  occ. eigenvalues --   -0.71282  -0.71281  -0.70437  -0.65119  -0.65118
 Alpha  occ. eigenvalues --   -0.57616
 Alpha virt. eigenvalues --   -0.25060  -0.25058  -0.21820  -0.15925  -0.15924
 Alpha virt. eigenvalues --   -0.15914  -0.15116  -0.14020  -0.14019  -0.12386
 Alpha virt. eigenvalues --   -0.12384  -0.11666  -0.11484  -0.10547  -0.10546

  Beta  occ. eigenvalues --  -14.46617 -14.46616 -14.46615 -10.37942 -10.37879
  Beta  occ. eigenvalues --  -10.37879 -10.29046 -10.29046 -10.29046 -10.29044
  Beta  occ. eigenvalues --  -10.29044 -10.29043  -1.33709  -1.29670  -1.29670
  Beta  occ. eigenvalues --   -1.24303  -1.05602  -1.05601  -1.04571  -1.04266
  Beta  occ. eigenvalues --   -1.04265  -1.02649  -0.88426  -0.88426  -0.87742
  Beta  occ. eigenvalues --   -0.84605  -0.84033  -0.84033  -0.81132  -0.80598
  Beta  occ. eigenvalues --   -0.80597  -0.75174  -0.74928  -0.74927  -0.74368
  Beta  occ. eigenvalues --   -0.72937  -0.72936  -0.72729  -0.72727  -0.72557
  Beta  occ. eigenvalues --   -0.71173  -0.71172  -0.70371  -0.63087  -0.63087
  Beta virt. eigenvalues --   -0.41835  -0.23829  -0.23826  -0.21610  -0.15909
  Beta virt. eigenvalues --   -0.15830  -0.15829  -0.14869  -0.13798  -0.13797
  Beta virt. eigenvalues --   -0.12213  -0.12212  -0.11570  -0.11424  -0.10452

 Mulliken charges and spin densities:
               1          2
     1  C   -0.096999  -0.008958
     2  C   -0.097187  -0.008956
     3  N    0.099012   0.294257
     4  N    0.099022   0.294271
     5  C   -0.284426  -0.010497
     6  H    0.228134   0.019662
     7  H    0.171663   0.001012
     8  H    0.216995   0.013838
     9  C   -0.284692  -0.010505
    10  H    0.216972   0.013790
    11  H    0.228151   0.019686
    12  H    0.171841   0.001034
    13  C   -0.284498  -0.010502
    14  H    0.228124   0.019675
    15  H    0.171758   0.001020
    16  H    0.216953   0.013822
    17  C   -0.284408  -0.010495
    18  H    0.216942   0.013844
    19  H    0.228114   0.019656
    20  H    0.171732   0.001013
    21  C   -0.097041  -0.008978
    22  N    0.099004   0.294275
    23  C   -0.284140  -0.010493
    24  H    0.228083   0.019644
    25  H    0.171584   0.000991
    26  H    0.216954   0.013887
    27  C   -0.284441  -0.010505
    28  H    0.216909   0.013814
    29  H    0.228115   0.019674
    30  H    0.171773   0.001024
 Sum of Mulliken charges =   2.00000   1.00000

 Dipole moment (field-independent basis, Debye):
    X=              0.0001    Y=              0.0000    Z=              0.0006  Tot=              0.0006
 Quadrupole moment (field-independent basis, Debye-Ang):
   XX=            -17.3707   YY=            -17.3786   ZZ=            -66.5823
   XY=             -0.0003   XZ=             -0.0014   YZ=              0.0009

 Normal termination of Gaussian 16 at Mon Jan 25 21:13:12 2021.
