 Gaussian 16, Revision A.03,
 Gaussian 16:  EM64L-G16RevA.03 25-Dec-2016

 ----------------------------------------------------------------------
 #P LC-wHPBE/TZVP iop(3/107=0255800000, 3/108=0255800000) scf=(conver=6
 ,fermi,ndamp=35,noincfock,novaracc,vshift=500,xqc)
 ----------------------------------------------------------------------

 ---------
 H18 C9 N3
 ---------
 Symbolic Z-matrix:
 Charge =  2 Multiplicity = 2

                         Standard orientation:
 ---------------------------------------------------------------------
 Center     Atomic      Atomic             Coordinates (Angstroms)
 Number     Number       Type             X           Y           Z
 ---------------------------------------------------------------------
      1          6           0       -0.610975   -0.510745   -0.000115
      2          6           0       -0.136632    0.784354   -0.000118
      3          7           0       -1.625585   -1.358470   -0.000149
      4          7           0       -0.363786    2.086845   -0.000256
      5          6           0       -1.430862   -2.779219    0.245115
      6          1           0       -1.515224   -3.355904   -0.681778
      7          1           0       -0.453738   -2.953483    0.694570
      8          1           0       -2.189816   -3.131940    0.948067
      9          6           0       -2.989097   -0.914073   -0.244915
     10          1           0       -3.471984   -1.599183   -0.946347
     11          1           0       -3.570851   -0.892877    0.682419
     12          1           0       -2.986856    0.077730   -0.695991
     13          6           0        0.702642    3.045751   -0.244739
     14          1           0        1.010678    3.539867    0.682520
     15          1           0        1.561174    2.547880   -0.694397
     16          1           0        0.351203    3.805740   -0.947208
     17          6           0       -1.691678    2.628275    0.244928
     18          1           0       -1.617946    3.461770    0.948079
     19          1           0       -2.148816    2.989837   -0.681963
     20          1           0       -2.331110    1.868946    0.694010
     21          6           0        0.747770   -0.273975   -0.000062
     22          7           0        1.989332   -0.728507    0.000089
     23          6           0        2.286824   -2.131338   -0.245062
     24          1           0        2.563014   -2.644923    0.681638
     25          1           0        1.425660   -2.626427   -0.692731
     26          1           0        3.119218   -2.206604   -0.949371
     27          6           0        3.122102    0.150924    0.245030
     28          1           0        3.807685   -0.330042    0.947323
     29          1           0        3.663088    0.366868   -0.682084
     30          1           0        2.784327    1.083936    0.695089
 ---------------------------------------------------------------------

 SCF Done:  E(ULC-wHPBE) =  -517.084584027     A.U. after   14 cycles

 The electronic state is 2-A.
 Alpha  occ. eigenvalues --  -14.53004 -14.53004 -14.53003 -10.43972 -10.43907
 Alpha  occ. eigenvalues --  -10.43906 -10.34610 -10.34609 -10.34609 -10.34607
 Alpha  occ. eigenvalues --  -10.34607 -10.34606  -1.40526  -1.36530  -1.36530
 Alpha  occ. eigenvalues --   -1.30968  -1.11339  -1.11338  -1.10248  -1.09838
 Alpha  occ. eigenvalues --   -1.09837  -1.08144  -0.93624  -0.93624  -0.92830
 Alpha  occ. eigenvalues --   -0.90720  -0.88853  -0.88853  -0.86578  -0.86578
 Alpha  occ. eigenvalues --   -0.85804  -0.80026  -0.79292  -0.79291  -0.78714
 Alpha  occ. eigenvalues --   -0.77267  -0.77265  -0.77071  -0.77070  -0.76988
 Alpha  occ. eigenvalues --   -0.75336  -0.75335  -0.74409  -0.69006  -0.69005
 Alpha  occ. eigenvalues --   -0.60754
 Alpha virt. eigenvalues --   -0.22467  -0.22465  -0.19386  -0.13565  -0.13564
 Alpha virt. eigenvalues --   -0.13000  -0.12710  -0.11354  -0.11353  -0.09566
 Alpha virt. eigenvalues --   -0.09565  -0.09055  -0.08967  -0.08091  -0.08090

  Beta  occ. eigenvalues --  -14.52342 -14.52341 -14.52339 -10.44023 -10.43959
  Beta  occ. eigenvalues --  -10.43959 -10.34628 -10.34628 -10.34628 -10.34625
  Beta  occ. eigenvalues --  -10.34625 -10.34624  -1.39910  -1.35568  -1.35567
  Beta  occ. eigenvalues --   -1.30034  -1.11193  -1.11192  -1.10089  -1.09708
  Beta  occ. eigenvalues --   -1.09708  -1.07907  -0.93241  -0.93241  -0.92432
  Beta  occ. eigenvalues --   -0.89694  -0.88576  -0.88576  -0.85410  -0.85106
  Beta  occ. eigenvalues --   -0.85106  -0.79136  -0.79135  -0.79077  -0.78604
  Beta  occ. eigenvalues --   -0.76943  -0.76941  -0.76810  -0.76808  -0.76639
  Beta  occ. eigenvalues --   -0.75215  -0.75214  -0.74337  -0.66108  -0.66108
  Beta virt. eigenvalues --   -0.40457  -0.20790  -0.20788  -0.19183  -0.13495
  Beta virt. eigenvalues --   -0.13493  -0.13028  -0.12462  -0.11183  -0.11182
  Beta virt. eigenvalues --   -0.09377  -0.09377  -0.09018  -0.08882  -0.08019

 Mulliken charges and spin densities:
               1          2
     1  C   -0.093348  -0.027681
     2  C   -0.093568  -0.027674
     3  N    0.097012   0.322978
     4  N    0.097029   0.322995
     5  C   -0.278366  -0.016172
     6  H    0.227310   0.019822
     7  H    0.167670   0.001217
     8  H    0.214934   0.014147
     9  C   -0.278643  -0.016181
    10  H    0.214912   0.014099
    11  H    0.227330   0.019846
    12  H    0.167855   0.001240
    13  C   -0.278443  -0.016178
    14  H    0.227302   0.019835
    15  H    0.167765   0.001226
    16  H    0.214893   0.014132
    17  C   -0.278346  -0.016170
    18  H    0.214883   0.014153
    19  H    0.227289   0.019816
    20  H    0.167734   0.001218
    21  C   -0.093419  -0.027707
    22  N    0.097017   0.323000
    23  C   -0.278072  -0.016168
    24  H    0.227258   0.019804
    25  H    0.167581   0.001196
    26  H    0.214895   0.014196
    27  C   -0.278389  -0.016181
    28  H    0.214851   0.014124
    29  H    0.227294   0.019835
    30  H    0.167781   0.001230
 Sum of Mulliken charges =   2.00000   1.00000

 Dipole moment (field-independent basis, Debye):
    X=              0.0001    Y=              0.0000    Z=              0.0006  Tot=              0.0006
 Quadrupole moment (field-independent basis, Debye-Ang):
   XX=            -17.5305   YY=            -17.5384   ZZ=            -66.4562
   XY=             -0.0002   XZ=             -0.0013   YZ=              0.0008

 Normal termination of Gaussian 16 at Mon Jan 25 21:19:28 2021.
