 Gaussian 16, Revision A.03,
 Gaussian 16:  EM64L-G16RevA.03 25-Dec-2016

 ----------------------------------------------------------------------
 #P LC-wHPBE/TZVP iop(3/107=0328100000, 3/108=0328100000) scf=(conver=6
 ,fermi,ndamp=35,noincfock,novaracc,vshift=500,xqc)
 ----------------------------------------------------------------------

 ---------
 H18 C9 N3
 ---------
 Symbolic Z-matrix:
 Charge =  2 Multiplicity = 2

                         Standard orientation:
 ---------------------------------------------------------------------
 Center     Atomic      Atomic             Coordinates (Angstroms)
 Number     Number       Type             X           Y           Z
 ---------------------------------------------------------------------
      1          6           0       -0.610975   -0.510745   -0.000115
      2          6           0       -0.136632    0.784354   -0.000118
      3          7           0       -1.625585   -1.358470   -0.000149
      4          7           0       -0.363786    2.086845   -0.000256
      5          6           0       -1.430862   -2.779219    0.245115
      6          1           0       -1.515224   -3.355904   -0.681778
      7          1           0       -0.453738   -2.953483    0.694570
      8          1           0       -2.189816   -3.131940    0.948067
      9          6           0       -2.989097   -0.914073   -0.244915
     10          1           0       -3.471984   -1.599183   -0.946347
     11          1           0       -3.570851   -0.892877    0.682419
     12          1           0       -2.986856    0.077730   -0.695991
     13          6           0        0.702642    3.045751   -0.244739
     14          1           0        1.010678    3.539867    0.682520
     15          1           0        1.561174    2.547880   -0.694397
     16          1           0        0.351203    3.805740   -0.947208
     17          6           0       -1.691678    2.628275    0.244928
     18          1           0       -1.617946    3.461770    0.948079
     19          1           0       -2.148816    2.989837   -0.681963
     20          1           0       -2.331110    1.868946    0.694010
     21          6           0        0.747770   -0.273975   -0.000062
     22          7           0        1.989332   -0.728507    0.000089
     23          6           0        2.286824   -2.131338   -0.245062
     24          1           0        2.563014   -2.644923    0.681638
     25          1           0        1.425660   -2.626427   -0.692731
     26          1           0        3.119218   -2.206604   -0.949371
     27          6           0        3.122102    0.150924    0.245030
     28          1           0        3.807685   -0.330042    0.947323
     29          1           0        3.663088    0.366868   -0.682084
     30          1           0        2.784327    1.083936    0.695089
 ---------------------------------------------------------------------

 SCF Done:  E(ULC-wHPBE) =  -517.135994971     A.U. after   14 cycles

 The electronic state is 2-A.
 Alpha  occ. eigenvalues --  -14.57102 -14.57101 -14.57100 -10.48331 -10.48261
 Alpha  occ. eigenvalues --  -10.48261 -10.38637 -10.38636 -10.38636 -10.38633
 Alpha  occ. eigenvalues --  -10.38633 -10.38633  -1.44889  -1.40673  -1.40673
 Alpha  occ. eigenvalues --   -1.34927  -1.14986  -1.14985  -1.13856  -1.13317
 Alpha  occ. eigenvalues --   -1.13316  -1.11495  -0.96568  -0.96568  -0.95669
 Alpha  occ. eigenvalues --   -0.93812  -0.91543  -0.91543  -0.89466  -0.89466
 Alpha  occ. eigenvalues --   -0.88316  -0.82379  -0.81706  -0.81705  -0.81125
 Alpha  occ. eigenvalues --   -0.79660  -0.79658  -0.79387  -0.79341  -0.79340
 Alpha  occ. eigenvalues --   -0.77658  -0.77657  -0.76681  -0.71156  -0.71156
 Alpha  occ. eigenvalues --   -0.62504
 Alpha virt. eigenvalues --   -0.21223  -0.21221  -0.18364  -0.12615  -0.12613
 Alpha virt. eigenvalues --   -0.11666  -0.11573  -0.10200  -0.10199  -0.08213
 Alpha virt. eigenvalues --   -0.08213  -0.08034  -0.07768  -0.07067  -0.07066

  Beta  occ. eigenvalues --  -14.56396 -14.56395 -14.56394 -10.48402 -10.48336
  Beta  occ. eigenvalues --  -10.48335 -10.38660 -10.38659 -10.38659 -10.38656
  Beta  occ. eigenvalues --  -10.38656 -10.38655  -1.44250  -1.39622  -1.39622
  Beta  occ. eigenvalues --   -1.33841  -1.14842  -1.14841  -1.13690  -1.13208
  Beta  occ. eigenvalues --   -1.13207  -1.11243  -0.96133  -0.96133  -0.95223
  Beta  occ. eigenvalues --   -0.92579  -0.91238  -0.91238  -0.87879  -0.87638
  Beta  occ. eigenvalues --   -0.87637  -0.81546  -0.81545  -0.81197  -0.81005
  Beta  occ. eigenvalues --   -0.79222  -0.79220  -0.79112  -0.79110  -0.78971
  Beta  occ. eigenvalues --   -0.77529  -0.77528  -0.76603  -0.67741  -0.67741
  Beta virt. eigenvalues --   -0.39853  -0.19302  -0.19299  -0.18173  -0.12560
  Beta virt. eigenvalues --   -0.12558  -0.11615  -0.11411  -0.10064  -0.10063
  Beta virt. eigenvalues --   -0.08019  -0.08018  -0.08010  -0.07689  -0.07004

 Mulliken charges and spin densities:
               1          2
     1  C   -0.081652  -0.040644
     2  C   -0.081900  -0.040630
     3  N    0.087426   0.342356
     4  N    0.087447   0.342375
     5  C   -0.281312  -0.019976
     6  H    0.229203   0.020058
     7  H    0.167141   0.001370
     8  H    0.215466   0.014353
     9  C   -0.281597  -0.019985
    10  H    0.215443   0.014305
    11  H    0.229225   0.020083
    12  H    0.167331   0.001394
    13  C   -0.281393  -0.019982
    14  H    0.229196   0.020072
    15  H    0.167237   0.001379
    16  H    0.215425   0.014337
    17  C   -0.281291  -0.019973
    18  H    0.215416   0.014359
    19  H    0.229181   0.020052
    20  H    0.167204   0.001371
    21  C   -0.081735  -0.040676
    22  N    0.087440   0.342382
    23  C   -0.281013  -0.019972
    24  H    0.229151   0.020040
    25  H    0.167047   0.001349
    26  H    0.215429   0.014402
    27  C   -0.281341  -0.019985
    28  H    0.215384   0.014330
    29  H    0.229189   0.020072
    30  H    0.167255   0.001383
 Sum of Mulliken charges =   2.00000   1.00000

 Dipole moment (field-independent basis, Debye):
    X=              0.0001    Y=              0.0000    Z=              0.0006  Tot=              0.0006
 Quadrupole moment (field-independent basis, Debye-Ang):
   XX=            -17.5480   YY=            -17.5559   ZZ=            -66.3434
   XY=             -0.0002   XZ=             -0.0013   YZ=              0.0008

 Normal termination of Gaussian 16 at Mon Jan 25 21:06:50 2021.
