 Gaussian 16, Revision A.03,
 Gaussian 16:  EM64L-G16RevA.03 25-Dec-2016

 ----------------------------------------------------------------------
 #P LC-wHPBE/TZVP iop(3/107=0248100000, 3/108=0248100000) scf=(conver=6
 ,fermi,ndamp=35,noincfock,novaracc,vshift=500,xqc)
 ----------------------------------------------------------------------

 ---------
 H18 C9 N3
 ---------
 Symbolic Z-matrix:
 Charge =  2 Multiplicity = 2

                         Standard orientation:
 ---------------------------------------------------------------------
 Center     Atomic      Atomic             Coordinates (Angstroms)
 Number     Number       Type             X           Y           Z
 ---------------------------------------------------------------------
      1          6           0       -0.610975   -0.510745   -0.000115
      2          6           0       -0.136632    0.784354   -0.000118
      3          7           0       -1.625585   -1.358470   -0.000149
      4          7           0       -0.363786    2.086845   -0.000256
      5          6           0       -1.430862   -2.779219    0.245115
      6          1           0       -1.515224   -3.355904   -0.681778
      7          1           0       -0.453738   -2.953483    0.694570
      8          1           0       -2.189816   -3.131940    0.948067
      9          6           0       -2.989097   -0.914073   -0.244915
     10          1           0       -3.471984   -1.599183   -0.946347
     11          1           0       -3.570851   -0.892877    0.682419
     12          1           0       -2.986856    0.077730   -0.695991
     13          6           0        0.702642    3.045751   -0.244739
     14          1           0        1.010678    3.539867    0.682520
     15          1           0        1.561174    2.547880   -0.694397
     16          1           0        0.351203    3.805740   -0.947208
     17          6           0       -1.691678    2.628275    0.244928
     18          1           0       -1.617946    3.461770    0.948079
     19          1           0       -2.148816    2.989837   -0.681963
     20          1           0       -2.331110    1.868946    0.694010
     21          6           0        0.747770   -0.273975   -0.000062
     22          7           0        1.989332   -0.728507    0.000089
     23          6           0        2.286824   -2.131338   -0.245062
     24          1           0        2.563014   -2.644923    0.681638
     25          1           0        1.425660   -2.626427   -0.692731
     26          1           0        3.119218   -2.206604   -0.949371
     27          6           0        3.122102    0.150924    0.245030
     28          1           0        3.807685   -0.330042    0.947323
     29          1           0        3.663088    0.366868   -0.682084
     30          1           0        2.784327    1.083936    0.695089
 ---------------------------------------------------------------------

 SCF Done:  E(ULC-wHPBE) =  -517.078459471     A.U. after   14 cycles

 The electronic state is 2-A.
 Alpha  occ. eigenvalues --  -14.52563 -14.52563 -14.52562 -10.43505 -10.43440
 Alpha  occ. eigenvalues --  -10.43439 -10.34180 -10.34179 -10.34179 -10.34177
 Alpha  occ. eigenvalues --  -10.34177 -10.34176  -1.40049  -1.36075  -1.36075
 Alpha  occ. eigenvalues --   -1.30526  -1.10926  -1.10925  -1.09841  -1.09441
 Alpha  occ. eigenvalues --   -1.09441  -1.07761  -0.93280  -0.93280  -0.92497
 Alpha  occ. eigenvalues --   -0.90354  -0.88536  -0.88535  -0.86238  -0.86238
 Alpha  occ. eigenvalues --   -0.85507  -0.79739  -0.79004  -0.79003  -0.78425
 Alpha  occ. eigenvalues --   -0.76983  -0.76981  -0.76797  -0.76796  -0.76702
 Alpha  occ. eigenvalues --   -0.75059  -0.75058  -0.74138  -0.68746  -0.68746
 Alpha  occ. eigenvalues --   -0.60545
 Alpha virt. eigenvalues --   -0.22625  -0.22623  -0.19525  -0.13698  -0.13696
 Alpha virt. eigenvalues --   -0.13183  -0.12851  -0.11511  -0.11510  -0.09740
 Alpha virt. eigenvalues --   -0.09739  -0.09194  -0.09127  -0.08231  -0.08230

  Beta  occ. eigenvalues --  -14.51905 -14.51905 -14.51903 -10.43553 -10.43490
  Beta  occ. eigenvalues --  -10.43489 -10.34198 -10.34197 -10.34197 -10.34195
  Beta  occ. eigenvalues --  -10.34195 -10.34194  -1.39435  -1.35121  -1.35120
  Beta  occ. eigenvalues --   -1.29608  -1.10780  -1.10779  -1.09682  -1.09310
  Beta  occ. eigenvalues --   -1.09310  -1.07525  -0.92902  -0.92902  -0.92104
  Beta  occ. eigenvalues --   -0.89343  -0.88261  -0.88261  -0.85117  -0.84801
  Beta  occ. eigenvalues --   -0.84800  -0.78848  -0.78847  -0.78820  -0.78316
  Beta  occ. eigenvalues --   -0.76671  -0.76670  -0.76533  -0.76531  -0.76361
  Beta  occ. eigenvalues --   -0.74939  -0.74938  -0.74067  -0.65909  -0.65909
  Beta virt. eigenvalues --   -0.40535  -0.20979  -0.20977  -0.19322  -0.13625
  Beta virt. eigenvalues --   -0.13624  -0.13209  -0.12603  -0.11336  -0.11335
  Beta virt. eigenvalues --   -0.09553  -0.09552  -0.09155  -0.09041  -0.08158

 Mulliken charges and spin densities:
               1          2
     1  C   -0.094257  -0.026246
     2  C   -0.094475  -0.026239
     3  N    0.097714   0.320798
     4  N    0.097730   0.320816
     5  C   -0.278361  -0.015739
     6  H    0.227205   0.019801
     7  H    0.167841   0.001200
     8  H    0.214966   0.014125
     9  C   -0.278637  -0.015748
    10  H    0.214945   0.014076
    11  H    0.227224   0.019825
    12  H    0.168026   0.001224
    13  C   -0.278438  -0.015746
    14  H    0.227196   0.019814
    15  H    0.167937   0.001209
    16  H    0.214925   0.014109
    17  C   -0.278342  -0.015738
    18  H    0.214915   0.014130
    19  H    0.227184   0.019795
    20  H    0.167906   0.001201
    21  C   -0.094327  -0.026271
    22  N    0.097718   0.320821
    23  C   -0.278068  -0.015736
    24  H    0.227153   0.019784
    25  H    0.167754   0.001179
    26  H    0.214927   0.014173
    27  C   -0.278384  -0.015748
    28  H    0.214884   0.014101
    29  H    0.227188   0.019814
    30  H    0.167953   0.001213
 Sum of Mulliken charges =   2.00000   1.00000

 Dipole moment (field-independent basis, Debye):
    X=              0.0001    Y=              0.0000    Z=              0.0006  Tot=              0.0006
 Quadrupole moment (field-independent basis, Debye-Ang):
   XX=            -17.5233   YY=            -17.5312   ZZ=            -66.4674
   XY=             -0.0002   XZ=             -0.0014   YZ=              0.0008

 Normal termination of Gaussian 16 at Mon Jan 25 22:01:54 2021.
