 Gaussian 16, Revision A.03,
 Gaussian 16:  EM64L-G16RevA.03 25-Dec-2016

 ----------------------------------------------------------------------
 #P LC-wHPBE/TZVP iop(3/107=0236900000, 3/108=0236900000) scf=(conver=6
 ,fermi,ndamp=35,noincfock,novaracc,vshift=500,xqc)
 ----------------------------------------------------------------------

 ---------
 H18 C9 N3
 ---------
 Symbolic Z-matrix:
 Charge =  1 Multiplicity = 1

                         Standard orientation:
 ---------------------------------------------------------------------
 Center     Atomic      Atomic             Coordinates (Angstroms)
 Number     Number       Type             X           Y           Z
 ---------------------------------------------------------------------
      1          6           0       -0.610975   -0.510745   -0.000115
      2          6           0       -0.136632    0.784354   -0.000118
      3          7           0       -1.625585   -1.358470   -0.000149
      4          7           0       -0.363786    2.086845   -0.000256
      5          6           0       -1.430862   -2.779219    0.245115
      6          1           0       -1.515224   -3.355904   -0.681778
      7          1           0       -0.453738   -2.953483    0.694570
      8          1           0       -2.189816   -3.131940    0.948067
      9          6           0       -2.989097   -0.914073   -0.244915
     10          1           0       -3.471984   -1.599183   -0.946347
     11          1           0       -3.570851   -0.892877    0.682419
     12          1           0       -2.986856    0.077730   -0.695991
     13          6           0        0.702642    3.045751   -0.244739
     14          1           0        1.010678    3.539867    0.682520
     15          1           0        1.561174    2.547880   -0.694397
     16          1           0        0.351203    3.805740   -0.947208
     17          6           0       -1.691678    2.628275    0.244928
     18          1           0       -1.617946    3.461770    0.948079
     19          1           0       -2.148816    2.989837   -0.681963
     20          1           0       -2.331110    1.868946    0.694010
     21          6           0        0.747770   -0.273975   -0.000062
     22          7           0        1.989332   -0.728507    0.000089
     23          6           0        2.286824   -2.131338   -0.245062
     24          1           0        2.563014   -2.644923    0.681638
     25          1           0        1.425660   -2.626427   -0.692731
     26          1           0        3.119218   -2.206604   -0.949371
     27          6           0        3.122102    0.150924    0.245030
     28          1           0        3.807685   -0.330042    0.947323
     29          1           0        3.663088    0.366868   -0.682084
     30          1           0        2.784327    1.083936    0.695089
 ---------------------------------------------------------------------

 SCF Done:  E(RLC-wHPBE) =  -517.474606064     A.U. after   10 cycles

 The electronic state is 1-A.
 Alpha  occ. eigenvalues --  -14.30570 -14.30570 -14.30569 -10.23811 -10.23747
 Alpha  occ. eigenvalues --  -10.23746 -10.18121 -10.18120 -10.18120 -10.18118
 Alpha  occ. eigenvalues --  -10.18118 -10.18117  -1.19988  -1.16204  -1.16204
 Alpha  occ. eigenvalues --   -1.10535  -0.93760  -0.93759  -0.92938  -0.91635
 Alpha  occ. eigenvalues --   -0.91634  -0.89769  -0.76116  -0.76116  -0.75380
 Alpha  occ. eigenvalues --   -0.71261  -0.70919  -0.70919  -0.68278  -0.68278
 Alpha  occ. eigenvalues --   -0.68245  -0.62614  -0.62613  -0.62452  -0.62397
 Alpha  occ. eigenvalues --   -0.61267  -0.61265  -0.61021  -0.59900  -0.59899
 Alpha  occ. eigenvalues --   -0.58393  -0.58194  -0.58193  -0.49999  -0.49998
 Alpha  occ. eigenvalues --   -0.40341
 Alpha virt. eigenvalues --   -0.04359  -0.04356  -0.04256  -0.00709  -0.00708
 Alpha virt. eigenvalues --    0.00646   0.02086   0.02087   0.02094   0.04758
 Alpha virt. eigenvalues --    0.04868   0.04869   0.04932   0.04933   0.05227

 Mulliken charges:
               1
     1  C   -0.118054
     2  C   -0.118271
     3  N    0.006482
     4  N    0.006502
     5  C   -0.268069
     6  H    0.173826
     7  H    0.150096
     8  H    0.166638
     9  C   -0.268297
    10  H    0.166641
    11  H    0.173838
    12  H    0.150247
    13  C   -0.268124
    14  H    0.173808
    15  H    0.150176
    16  H    0.166606
    17  C   -0.268047
    18  H    0.166584
    19  H    0.173807
    20  H    0.150159
    21  C   -0.118108
    22  N    0.006497
    23  C   -0.267813
    24  H    0.173775
    25  H    0.150035
    26  H    0.166574
    27  C   -0.268072
    28  H    0.166571
    29  H    0.173802
    30  H    0.150191
 Sum of Mulliken charges =   1.00000

 Dipole moment (field-independent basis, Debye):
    X=             -0.0004    Y=             -0.0003    Z=              0.0007  Tot=              0.0008
 Quadrupole moment (field-independent basis, Debye-Ang):
   XX=            -44.2159   YY=            -44.2197   ZZ=            -71.9489
   XY=              0.0015   XZ=              0.0002   YZ=              0.0002

 1\1\GINC-CNODE237\SP\RLC-wHPBE\TZVP\C9H18N3(1+)\RDU230\25-Jan-2021\0\\
 #P LC-wHPBE/TZVP iop(3/107=0236900000, 3/108=0236900000) scf=(conver=6
 ,fermi,ndamp=35,noincfock,novaracc,vshift=500,xqc)\\H18 C9 N3\\1,1\C,0
 ,-0.610862,0.51088,0.000115\C,0,-0.136805,-0.784324,0.000118\N,0,-1.62
 5284,1.358829,0.000149\N,0,-0.364248,-2.086765,0.000256\C,0,-1.430247,
 2.779535,-0.245115\H,0,-1.514482,3.356239,0.681778\H,0,-0.453085,2.953
 583,-0.69457\H,0,-2.189123,3.132424,-0.948067\C,0,-2.988895,0.914734,0
 .244915\H,0,-3.47163,1.599951,0.946347\H,0,-3.570653,0.893667,-0.68241

 Normal termination of Gaussian 16 at Mon Jan 25 21:33:54 2021.
