 Gaussian 16, Revision A.03,
 Gaussian 16:  EM64L-G16RevA.03 25-Dec-2016

 ----------------------------------------------------------------------
 #P LC-wHPBE/TZVP iop(3/107=0156200000, 3/108=0156200000) scf=(conver=6
 ,fermi,ndamp=35,noincfock,novaracc,vshift=500,xqc)
 ----------------------------------------------------------------------

 -------------
 H21 C21 N1 O3
 -------------
 Symbolic Z-matrix:
 Charge =  1 Multiplicity = 2

                         Standard orientation:
 ---------------------------------------------------------------------
 Center     Atomic      Atomic             Coordinates (Angstroms)
 Number     Number       Type             X           Y           Z
 ---------------------------------------------------------------------
      1          7           0       -0.054086   -0.063852    0.077784
      2          6           0        0.275154    1.311734    0.103506
      3          6           0        1.260864    1.827996   -0.723750
      4          6           0       -0.386136    2.184815    0.970218
      5          6           0        1.598383    3.175646   -0.688444
      6          6           0       -0.074578    3.526309    0.994438
      7          6           0        0.925199    4.034430    0.167909
      8          1           0        1.784639    1.164376   -1.405148
      9          1           0       -1.158634    1.797039    1.627427
     10          1           0        2.379443    3.537518   -1.347421
     11          1           0       -0.588854    4.206820    1.665799
     12          6           0        0.970368   -1.034170   -0.019727
     13          6           0        2.134785   -0.917605    0.724871
     14          6           0        0.835798   -2.133662   -0.869883
     15          6           0        3.151989   -1.858173    0.623575
     16          6           0        1.829783   -3.083911   -0.958163
     17          6           0        3.000538   -2.952780   -0.215611
     18          1           0        2.255494   -0.070395    1.393250
     19          1           0       -0.067506   -2.240735   -1.462783
     20          1           0        4.048238   -1.726663    1.219136
     21          1           0        1.725248   -3.941045   -1.615932
     22          8           0        3.928452   -3.936732   -0.380204
     23          6           0        5.121819   -3.840278    0.365278
     24          1           0        5.681123   -2.930405    0.115451
     25          1           0        4.925954   -3.859222    1.444250
     26          1           0        5.719913   -4.710923    0.096466
     27          8           0        1.168219    5.370782    0.273837
     28          6           0        2.170457    5.919716   -0.552884
     29          1           0        3.151069    5.472721   -0.348812
     30          1           0        1.930215    5.794071   -1.615623
     31          1           0        2.208574    6.983731   -0.319613
     32          6           0       -1.409258   -0.466483    0.091838
     33          6           0       -2.372325    0.232607   -0.620224
     34          6           0       -1.812213   -1.581496    0.830640
     35          6           0       -3.707828   -0.150755   -0.593850
     36          6           0       -3.129962   -1.982236    0.842322
     37          6           0       -4.092694   -1.267170    0.133583
     38          1           0       -2.078678    1.100647   -1.202616
     39          1           0       -1.073245   -2.139336    1.397822
     40          1           0       -4.429565    0.427687   -1.159301
     41          1           0       -3.443944   -2.850000    1.413878
     42          8           0       -5.369584   -1.734983    0.218075
     43          6           0       -6.368506   -1.037348   -0.492266
     44          1           0       -6.460713   -0.000869   -0.145468
     45          1           0       -6.173119   -1.041209   -1.571513
     46          1           0       -7.303574   -1.562500   -0.297656
 ---------------------------------------------------------------------

 SCF Done:  E(ULC-wHPBE) =  -1092.33039769     A.U. after   17 cycles

 The electronic state is 2-A.
 Alpha  occ. eigenvalues --  -18.99245 -18.99225 -18.99220 -14.28998 -10.16120
 Alpha  occ. eigenvalues --  -10.16097 -10.16083 -10.14784 -10.14781 -10.14773
 Alpha  occ. eigenvalues --  -10.12160 -10.12119 -10.12080 -10.11209 -10.11180
 Alpha  occ. eigenvalues --  -10.11166 -10.10863 -10.10839 -10.10811 -10.10081
 Alpha  occ. eigenvalues --  -10.10046 -10.10035 -10.09676 -10.09658 -10.09629
 Alpha  occ. eigenvalues --   -1.19115  -1.19089  -1.19075  -1.13884  -1.01098
 Alpha  occ. eigenvalues --   -1.01084  -0.99092  -0.92099  -0.91947  -0.90337
 Alpha  occ. eigenvalues --   -0.90184  -0.89897  -0.88150  -0.84713  -0.84239
 Alpha  occ. eigenvalues --   -0.82122  -0.79032  -0.77890  -0.77267  -0.75975
 Alpha  occ. eigenvalues --   -0.75215  -0.72977  -0.71076  -0.71052  -0.68801
 Alpha  occ. eigenvalues --   -0.67744  -0.67687  -0.66334  -0.64356  -0.64139
 Alpha  occ. eigenvalues --   -0.61747  -0.61723  -0.61681  -0.61048  -0.60998
 Alpha  occ. eigenvalues --   -0.60931  -0.59011  -0.58892  -0.58876  -0.58493
 Alpha  occ. eigenvalues --   -0.58218  -0.56918  -0.56883  -0.55907  -0.55709
 Alpha  occ. eigenvalues --   -0.55440  -0.55431  -0.55410  -0.53190  -0.52006
 Alpha  occ. eigenvalues --   -0.51959  -0.51163  -0.49506  -0.49399  -0.48339
 Alpha  occ. eigenvalues --   -0.48241  -0.48216  -0.45719  -0.44665  -0.43749
 Alpha  occ. eigenvalues --   -0.43562  -0.40641  -0.40505  -0.36555
 Alpha virt. eigenvalues --   -0.11113  -0.09814  -0.09702  -0.08940  -0.08789
 Alpha virt. eigenvalues --   -0.05541  -0.01805  -0.00514  -0.00390   0.00375
 Alpha virt. eigenvalues --    0.00570   0.01170   0.01963   0.02194   0.02565

  Beta  occ. eigenvalues --  -18.99132 -18.99109 -18.99099 -14.28267 -10.16002
  Beta  occ. eigenvalues --  -10.15976 -10.15959 -10.14794 -10.14791 -10.14783
  Beta  occ. eigenvalues --  -10.12165 -10.12124 -10.12085 -10.11089 -10.11058
  Beta  occ. eigenvalues --  -10.11042 -10.10773 -10.10748 -10.10719 -10.10103
  Beta  occ. eigenvalues --  -10.10070 -10.10057 -10.09701 -10.09680 -10.09654
  Beta  occ. eigenvalues --   -1.18925  -1.18893  -1.18872  -1.12956  -1.00901
  Beta  occ. eigenvalues --   -1.00881  -0.98823  -0.91898  -0.91747  -0.90216
  Beta  occ. eigenvalues --   -0.90057  -0.89771  -0.87853  -0.84646  -0.84179
  Beta  occ. eigenvalues --   -0.81892  -0.78829  -0.77706  -0.77086  -0.75783
  Beta  occ. eigenvalues --   -0.75064  -0.72849  -0.70942  -0.70914  -0.68701
  Beta  occ. eigenvalues --   -0.67616  -0.67550  -0.65884  -0.64263  -0.64038
  Beta  occ. eigenvalues --   -0.61491  -0.61461  -0.61413  -0.60941  -0.60895
  Beta  occ. eigenvalues --   -0.60840  -0.58925  -0.58819  -0.58807  -0.58108
  Beta  occ. eigenvalues --   -0.57977  -0.56862  -0.56834  -0.55768  -0.55542
  Beta  occ. eigenvalues --   -0.55161  -0.55148  -0.55120  -0.52721  -0.51904
  Beta  occ. eigenvalues --   -0.51864  -0.50689  -0.49001  -0.48891  -0.48227
  Beta  occ. eigenvalues --   -0.48153  -0.48127  -0.44426  -0.44154  -0.43474
  Beta  occ. eigenvalues --   -0.43263  -0.39435  -0.39232
  Beta virt. eigenvalues --   -0.22888  -0.10765  -0.09213  -0.09048  -0.08496
  Beta virt. eigenvalues --   -0.08286  -0.04550  -0.01731  -0.00452  -0.00334
  Beta virt. eigenvalues --    0.00437   0.00625   0.01210   0.02039   0.02235

 Mulliken charges and spin densities:
               1          2
     1  N    0.083776   0.317511
     2  C   -0.103950   0.012960
     3  C   -0.069797   0.080545
     4  C   -0.057421   0.057281
     5  C   -0.184470  -0.027030
     6  C   -0.194676  -0.027321
     7  C    0.157582   0.088095
     8  H    0.164187  -0.003829
     9  H    0.165159  -0.002585
    10  H    0.170319   0.001177
    11  H    0.150594   0.001416
    12  C   -0.095956   0.012355
    13  C   -0.080118   0.082513
    14  C   -0.053430   0.057677
    15  C   -0.183967  -0.029154
    16  C   -0.194079  -0.025507
    17  C    0.157582   0.089863
    18  H    0.164314  -0.003888
    19  H    0.167326  -0.002708
    20  H    0.170608   0.001199
    21  H    0.150846   0.001373
    22  O   -0.100105   0.039785
    23  C   -0.262627  -0.003533
    24  H    0.144080   0.003411
    25  H    0.147132   0.003404
    26  H    0.173109  -0.000105
    27  O   -0.100609   0.038604
    28  C   -0.262411  -0.003456
    29  H    0.144376   0.003304
    30  H    0.146401   0.003315
    31  H    0.173028  -0.000102
    32  C   -0.081962   0.011982
    33  C   -0.080277   0.084350
    34  C   -0.065881   0.059782
    35  C   -0.183032  -0.027831
    36  C   -0.193037  -0.027841
    37  C    0.157692   0.092792
    38  H    0.167226  -0.004104
    39  H    0.167790  -0.002764
    40  H    0.170610   0.001162
    41  H    0.151225   0.001388
    42  O   -0.099554   0.041241
    43  C   -0.262608  -0.003675
    44  H    0.145233   0.003516
    45  H    0.146613   0.003541
    46  H    0.173157  -0.000108
 Sum of Mulliken charges =   1.00000   1.00000

 Dipole moment (field-independent basis, Debye):
    X=              1.1064    Y=              1.2599    Z=             -0.7842  Tot=              1.8511
 Quadrupole moment (field-independent basis, Debye-Ang):
   XX=            -67.0680   YY=            -96.4685   ZZ=           -137.6612
   XY=             -0.3738   XZ=              6.6222   YZ=             -7.2654

 Normal termination of Gaussian 16 at Sun Jan 17 00:49:13 2021.
