 Gaussian 16, Revision A.03,
 Gaussian 16:  EM64L-G16RevA.03 25-Dec-2016

 ----------------------------------------------------------------------
 #P LC-wHPBE/TZVP iop(3/107=0199600000, 3/108=0199600000) scf=(conver=6
 ,fermi,ndamp=35,noincfock,novaracc,vshift=500,xqc)
 ----------------------------------------------------------------------

 -------------
 H21 C21 N1 O3
 -------------
 Symbolic Z-matrix:
 Charge =  0 Multiplicity = 1

                         Standard orientation:
 ---------------------------------------------------------------------
 Center     Atomic      Atomic             Coordinates (Angstroms)
 Number     Number       Type             X           Y           Z
 ---------------------------------------------------------------------
      1          7           0       -0.054086   -0.063852    0.077784
      2          6           0        0.275154    1.311734    0.103506
      3          6           0        1.260864    1.827996   -0.723750
      4          6           0       -0.386136    2.184815    0.970218
      5          6           0        1.598383    3.175646   -0.688444
      6          6           0       -0.074578    3.526309    0.994438
      7          6           0        0.925199    4.034430    0.167909
      8          1           0        1.784639    1.164376   -1.405148
      9          1           0       -1.158634    1.797039    1.627427
     10          1           0        2.379443    3.537518   -1.347421
     11          1           0       -0.588854    4.206820    1.665799
     12          6           0        0.970368   -1.034170   -0.019727
     13          6           0        2.134785   -0.917605    0.724871
     14          6           0        0.835798   -2.133662   -0.869883
     15          6           0        3.151989   -1.858173    0.623575
     16          6           0        1.829783   -3.083911   -0.958163
     17          6           0        3.000538   -2.952780   -0.215611
     18          1           0        2.255494   -0.070395    1.393250
     19          1           0       -0.067506   -2.240735   -1.462783
     20          1           0        4.048238   -1.726663    1.219136
     21          1           0        1.725248   -3.941045   -1.615932
     22          8           0        3.928452   -3.936732   -0.380204
     23          6           0        5.121819   -3.840278    0.365278
     24          1           0        5.681123   -2.930405    0.115451
     25          1           0        4.925954   -3.859222    1.444250
     26          1           0        5.719913   -4.710923    0.096466
     27          8           0        1.168219    5.370782    0.273837
     28          6           0        2.170457    5.919716   -0.552884
     29          1           0        3.151069    5.472721   -0.348812
     30          1           0        1.930215    5.794071   -1.615623
     31          1           0        2.208574    6.983731   -0.319613
     32          6           0       -1.409258   -0.466483    0.091838
     33          6           0       -2.372325    0.232607   -0.620224
     34          6           0       -1.812213   -1.581496    0.830640
     35          6           0       -3.707828   -0.150755   -0.593850
     36          6           0       -3.129962   -1.982236    0.842322
     37          6           0       -4.092694   -1.267170    0.133583
     38          1           0       -2.078678    1.100647   -1.202616
     39          1           0       -1.073245   -2.139336    1.397822
     40          1           0       -4.429565    0.427687   -1.159301
     41          1           0       -3.443944   -2.850000    1.413878
     42          8           0       -5.369584   -1.734983    0.218075
     43          6           0       -6.368506   -1.037348   -0.492266
     44          1           0       -6.460713   -0.000869   -0.145468
     45          1           0       -6.173119   -1.041209   -1.571513
     46          1           0       -7.303574   -1.562500   -0.297656
 ---------------------------------------------------------------------

 SCF Done:  E(RLC-wHPBE) =  -1092.61746703     A.U. after   14 cycles

 The electronic state is 1-A.
 Alpha  occ. eigenvalues --  -18.89228 -18.89160 -18.89076 -14.11875 -10.05030
 Alpha  occ. eigenvalues --  -10.04965 -10.04872 -10.04690 -10.04630 -10.04545
 Alpha  occ. eigenvalues --  -10.02818 -10.02788 -10.02755  -9.99598  -9.99554
 Alpha  occ. eigenvalues --   -9.99470  -9.99460  -9.99433  -9.99416  -9.99376
 Alpha  occ. eigenvalues --   -9.99335  -9.99312  -9.99205  -9.99141  -9.99079
 Alpha  occ. eigenvalues --   -1.09562  -1.09495  -1.09410  -0.99690  -0.89912
 Alpha  occ. eigenvalues --   -0.89843  -0.87953  -0.81133  -0.80960  -0.79708
 Alpha  occ. eigenvalues --   -0.79505  -0.79026  -0.78001  -0.75136  -0.74748
 Alpha  occ. eigenvalues --   -0.71954  -0.67718  -0.66965  -0.66267  -0.64991
 Alpha  occ. eigenvalues --   -0.64596  -0.62203  -0.60015  -0.59956  -0.59098
 Alpha  occ. eigenvalues --   -0.57284  -0.57068  -0.54911  -0.53565  -0.53340
 Alpha  occ. eigenvalues --   -0.52750  -0.52687  -0.52601  -0.50340  -0.50306
 Alpha  occ. eigenvalues --   -0.50154  -0.48337  -0.48209  -0.48041  -0.47862
 Alpha  occ. eigenvalues --   -0.47089  -0.46978  -0.46894  -0.44900  -0.44769
 Alpha  occ. eigenvalues --   -0.44574  -0.44350  -0.43963  -0.42230  -0.41431
 Alpha  occ. eigenvalues --   -0.41239  -0.39865  -0.38818  -0.38666  -0.38305
 Alpha  occ. eigenvalues --   -0.38109  -0.38018  -0.33689  -0.32893  -0.32037
 Alpha  occ. eigenvalues --   -0.31808  -0.29129  -0.28919  -0.22817
 Alpha virt. eigenvalues --    0.03116   0.04895   0.05012   0.05484   0.05670
 Alpha virt. eigenvalues --    0.09649   0.10253   0.10661   0.10706   0.12430
 Alpha virt. eigenvalues --    0.12514   0.12620   0.13773   0.14380   0.14576

 Mulliken charges:
               1
     1  N   -0.009862
     2  C   -0.089410
     3  C   -0.095793
     4  C   -0.073164
     5  C   -0.202247
     6  C   -0.213588
     7  C    0.135499
     8  H    0.138542
     9  H    0.138813
    10  H    0.137000
    11  H    0.110417
    12  C   -0.083530
    13  C   -0.106305
    14  C   -0.070843
    15  C   -0.201346
    16  C   -0.213464
    17  C    0.134997
    18  H    0.137824
    19  H    0.142244
    20  H    0.137099
    21  H    0.110539
    22  O   -0.136269
    23  C   -0.242169
    24  H    0.124131
    25  H    0.126060
    26  H    0.144205
    27  O   -0.136378
    28  C   -0.242064
    29  H    0.124571
    30  H    0.125691
    31  H    0.144228
    32  C   -0.071278
    33  C   -0.108722
    34  C   -0.083768
    35  C   -0.201238
    36  C   -0.212189
    37  C    0.134696
    38  H    0.141922
    39  H    0.141765
    40  H    0.136906
    41  H    0.110559
    42  O   -0.136445
    43  C   -0.241943
    44  H    0.124872
    45  H    0.125419
    46  H    0.144015
 Sum of Mulliken charges =  -0.00000

 Dipole moment (field-independent basis, Debye):
    X=              1.2168    Y=              1.3483    Z=             -0.7967  Tot=              1.9833
 Quadrupole moment (field-independent basis, Debye-Ang):
   XX=           -118.8384   YY=           -142.7010   ZZ=           -145.8184
   XY=             -0.4013   XZ=              6.6649   YZ=             -7.3246

 Normal termination of Gaussian 16 at Sun Jan 17 00:59:53 2021.
