 Gaussian 16, Revision A.03,
 Gaussian 16:  EM64L-G16RevA.03 25-Dec-2016

 ----------------------------------------------------------------------
 #P LC-wHPBE/TZVP iop(3/107=0156200000, 3/108=0156200000) scf=(conver=6
 ,fermi,ndamp=35,noincfock,novaracc,vshift=500,xqc)
 ----------------------------------------------------------------------

 -------------
 H21 C21 N1 O3
 -------------
 Symbolic Z-matrix:
 Charge =  0 Multiplicity = 1

                         Standard orientation:
 ---------------------------------------------------------------------
 Center     Atomic      Atomic             Coordinates (Angstroms)
 Number     Number       Type             X           Y           Z
 ---------------------------------------------------------------------
      1          7           0       -0.054086   -0.063852    0.077784
      2          6           0        0.275154    1.311734    0.103506
      3          6           0        1.260864    1.827996   -0.723750
      4          6           0       -0.386136    2.184815    0.970218
      5          6           0        1.598383    3.175646   -0.688444
      6          6           0       -0.074578    3.526309    0.994438
      7          6           0        0.925199    4.034430    0.167909
      8          1           0        1.784639    1.164376   -1.405148
      9          1           0       -1.158634    1.797039    1.627427
     10          1           0        2.379443    3.537518   -1.347421
     11          1           0       -0.588854    4.206820    1.665799
     12          6           0        0.970368   -1.034170   -0.019727
     13          6           0        2.134785   -0.917605    0.724871
     14          6           0        0.835798   -2.133662   -0.869883
     15          6           0        3.151989   -1.858173    0.623575
     16          6           0        1.829783   -3.083911   -0.958163
     17          6           0        3.000538   -2.952780   -0.215611
     18          1           0        2.255494   -0.070395    1.393250
     19          1           0       -0.067506   -2.240735   -1.462783
     20          1           0        4.048238   -1.726663    1.219136
     21          1           0        1.725248   -3.941045   -1.615932
     22          8           0        3.928452   -3.936732   -0.380204
     23          6           0        5.121819   -3.840278    0.365278
     24          1           0        5.681123   -2.930405    0.115451
     25          1           0        4.925954   -3.859222    1.444250
     26          1           0        5.719913   -4.710923    0.096466
     27          8           0        1.168219    5.370782    0.273837
     28          6           0        2.170457    5.919716   -0.552884
     29          1           0        3.151069    5.472721   -0.348812
     30          1           0        1.930215    5.794071   -1.615623
     31          1           0        2.208574    6.983731   -0.319613
     32          6           0       -1.409258   -0.466483    0.091838
     33          6           0       -2.372325    0.232607   -0.620224
     34          6           0       -1.812213   -1.581496    0.830640
     35          6           0       -3.707828   -0.150755   -0.593850
     36          6           0       -3.129962   -1.982236    0.842322
     37          6           0       -4.092694   -1.267170    0.133583
     38          1           0       -2.078678    1.100647   -1.202616
     39          1           0       -1.073245   -2.139336    1.397822
     40          1           0       -4.429565    0.427687   -1.159301
     41          1           0       -3.443944   -2.850000    1.413878
     42          8           0       -5.369584   -1.734983    0.218075
     43          6           0       -6.368506   -1.037348   -0.492266
     44          1           0       -6.460713   -0.000869   -0.145468
     45          1           0       -6.173119   -1.041209   -1.571513
     46          1           0       -7.303574   -1.562500   -0.297656
 ---------------------------------------------------------------------

 SCF Done:  E(RLC-wHPBE) =  -1092.55304933     A.U. after   14 cycles

 The electronic state is 1-A.
 Alpha  occ. eigenvalues --  -18.86941 -18.86875 -18.86792 -14.09588 -10.02519
 Alpha  occ. eigenvalues --  -10.02455 -10.02364 -10.02254 -10.02195 -10.02112
 Alpha  occ. eigenvalues --  -10.00328 -10.00299 -10.00265  -9.97136  -9.97093
 Alpha  occ. eigenvalues --   -9.97010  -9.96986  -9.96961  -9.96943  -9.96905
 Alpha  occ. eigenvalues --   -9.96863  -9.96842  -9.96752  -9.96690  -9.96629
 Alpha  occ. eigenvalues --   -1.07109  -1.07043  -1.06959  -0.97150  -0.87310
 Alpha  occ. eigenvalues --   -0.87242  -0.85388  -0.78648  -0.78484  -0.77201
 Alpha  occ. eigenvalues --   -0.77001  -0.76526  -0.75571  -0.72735  -0.72353
 Alpha  occ. eigenvalues --   -0.69580  -0.65391  -0.64656  -0.63952  -0.62730
 Alpha  occ. eigenvalues --   -0.62347  -0.59966  -0.57821  -0.57750  -0.57003
 Alpha  occ. eigenvalues --   -0.55268  -0.55032  -0.52780  -0.51508  -0.51276
 Alpha  occ. eigenvalues --   -0.50626  -0.50565  -0.50481  -0.48290  -0.48257
 Alpha  occ. eigenvalues --   -0.48111  -0.46365  -0.46236  -0.46066  -0.45864
 Alpha  occ. eigenvalues --   -0.45184  -0.45051  -0.44986  -0.42886  -0.42697
 Alpha  occ. eigenvalues --   -0.42523  -0.42447  -0.42143  -0.40357  -0.39586
 Alpha  occ. eigenvalues --   -0.39413  -0.37984  -0.36952  -0.36802  -0.36507
 Alpha  occ. eigenvalues --   -0.36322  -0.36237  -0.31931  -0.31347  -0.30511
 Alpha  occ. eigenvalues --   -0.30288  -0.27689  -0.27485  -0.21622
 Alpha virt. eigenvalues --    0.01990   0.03763   0.03891   0.04265   0.04456
 Alpha virt. eigenvalues --    0.08384   0.09123   0.09532   0.09578   0.11228
 Alpha virt. eigenvalues --    0.11302   0.11392   0.12460   0.13199   0.13357

 Mulliken charges:
               1
     1  N    0.002830
     2  C   -0.087470
     3  C   -0.095292
     4  C   -0.073607
     5  C   -0.197319
     6  C   -0.208607
     7  C    0.137619
     8  H    0.133428
     9  H    0.133425
    10  H    0.132237
    11  H    0.106001
    12  C   -0.081492
    13  C   -0.106014
    14  C   -0.070947
    15  C   -0.196522
    16  C   -0.208524
    17  C    0.137120
    18  H    0.132748
    19  H    0.136852
    20  H    0.132348
    21  H    0.106131
    22  O   -0.135091
    23  C   -0.245816
    24  H    0.125524
    25  H    0.127488
    26  H    0.145131
    27  O   -0.135199
    28  C   -0.245707
    29  H    0.125957
    30  H    0.127125
    31  H    0.145149
    32  C   -0.069245
    33  C   -0.108011
    34  C   -0.083981
    35  C   -0.196508
    36  C   -0.207405
    37  C    0.136895
    38  H    0.136830
    39  H    0.136397
    40  H    0.132163
    41  H    0.106155
    42  O   -0.135265
    43  C   -0.245580
    44  H    0.126258
    45  H    0.126854
    46  H    0.144934
 Sum of Mulliken charges =  -0.00000

 Dipole moment (field-independent basis, Debye):
    X=              1.1998    Y=              1.3292    Z=             -0.7859  Tot=              1.9555
 Quadrupole moment (field-independent basis, Debye-Ang):
   XX=           -119.0255   YY=           -142.5872   ZZ=           -146.0814
   XY=             -0.3960   XZ=              6.5655   YZ=             -7.2153

 Normal termination of Gaussian 16 at Sun Jan 17 00:32:58 2021.
