 Gaussian 16, Revision A.03,
 Gaussian 16:  EM64L-G16RevA.03 25-Dec-2016

 ----------------------------------------------------------------------
 #P LC-wHPBE/TZVP iop(3/107=0189400000, 3/108=0189400000) scf=(conver=6
 ,fermi,ndamp=35,noincfock,novaracc,vshift=500,xqc)
 ----------------------------------------------------------------------

 -------------
 H21 C21 N1 O3
 -------------
 Symbolic Z-matrix:
 Charge =  1 Multiplicity = 2

                         Standard orientation:
 ---------------------------------------------------------------------
 Center     Atomic      Atomic             Coordinates (Angstroms)
 Number     Number       Type             X           Y           Z
 ---------------------------------------------------------------------
      1          7           0       -0.054086   -0.063852    0.077784
      2          6           0        0.275154    1.311734    0.103506
      3          6           0        1.260864    1.827996   -0.723750
      4          6           0       -0.386136    2.184815    0.970218
      5          6           0        1.598383    3.175646   -0.688444
      6          6           0       -0.074578    3.526309    0.994438
      7          6           0        0.925199    4.034430    0.167909
      8          1           0        1.784639    1.164376   -1.405148
      9          1           0       -1.158634    1.797039    1.627427
     10          1           0        2.379443    3.537518   -1.347421
     11          1           0       -0.588854    4.206820    1.665799
     12          6           0        0.970368   -1.034170   -0.019727
     13          6           0        2.134785   -0.917605    0.724871
     14          6           0        0.835798   -2.133662   -0.869883
     15          6           0        3.151989   -1.858173    0.623575
     16          6           0        1.829783   -3.083911   -0.958163
     17          6           0        3.000538   -2.952780   -0.215611
     18          1           0        2.255494   -0.070395    1.393250
     19          1           0       -0.067506   -2.240735   -1.462783
     20          1           0        4.048238   -1.726663    1.219136
     21          1           0        1.725248   -3.941045   -1.615932
     22          8           0        3.928452   -3.936732   -0.380204
     23          6           0        5.121819   -3.840278    0.365278
     24          1           0        5.681123   -2.930405    0.115451
     25          1           0        4.925954   -3.859222    1.444250
     26          1           0        5.719913   -4.710923    0.096466
     27          8           0        1.168219    5.370782    0.273837
     28          6           0        2.170457    5.919716   -0.552884
     29          1           0        3.151069    5.472721   -0.348812
     30          1           0        1.930215    5.794071   -1.615623
     31          1           0        2.208574    6.983731   -0.319613
     32          6           0       -1.409258   -0.466483    0.091838
     33          6           0       -2.372325    0.232607   -0.620224
     34          6           0       -1.812213   -1.581496    0.830640
     35          6           0       -3.707828   -0.150755   -0.593850
     36          6           0       -3.129962   -1.982236    0.842322
     37          6           0       -4.092694   -1.267170    0.133583
     38          1           0       -2.078678    1.100647   -1.202616
     39          1           0       -1.073245   -2.139336    1.397822
     40          1           0       -4.429565    0.427687   -1.159301
     41          1           0       -3.443944   -2.850000    1.413878
     42          8           0       -5.369584   -1.734983    0.218075
     43          6           0       -6.368506   -1.037348   -0.492266
     44          1           0       -6.460713   -0.000869   -0.145468
     45          1           0       -6.173119   -1.041209   -1.571513
     46          1           0       -7.303574   -1.562500   -0.297656
 ---------------------------------------------------------------------

 SCF Done:  E(ULC-wHPBE) =  -1092.37689581     A.U. after   18 cycles

 The electronic state is 2-A.
 Alpha  occ. eigenvalues --  -19.00957 -19.00937 -19.00935 -14.31198 -10.18088
 Alpha  occ. eigenvalues --  -10.18064 -10.18052 -10.16744 -10.16742 -10.16732
 Alpha  occ. eigenvalues --  -10.13999 -10.13957 -10.13918 -10.13200 -10.13171
 Alpha  occ. eigenvalues --  -10.13159 -10.12841 -10.12817 -10.12790 -10.11971
 Alpha  occ. eigenvalues --  -10.11936 -10.11925 -10.11558 -10.11538 -10.11511
 Alpha  occ. eigenvalues --   -1.20969  -1.20942  -1.20929  -1.16067  -1.03149
 Alpha  occ. eigenvalues --   -1.03137  -1.01120  -0.94066  -0.93912  -0.92303
 Alpha  occ. eigenvalues --   -0.92149  -0.91861  -0.90050  -0.86563  -0.86081
 Alpha  occ. eigenvalues --   -0.83970  -0.80887  -0.79724  -0.79098  -0.77779
 Alpha  occ. eigenvalues --   -0.77002  -0.74755  -0.72851  -0.72821  -0.70431
 Alpha  occ. eigenvalues --   -0.69332  -0.69289  -0.68081  -0.65987  -0.65778
 Alpha  occ. eigenvalues --   -0.63392  -0.63369  -0.63321  -0.62675  -0.62625
 Alpha  occ. eigenvalues --   -0.62554  -0.60617  -0.60472  -0.60456  -0.60109
 Alpha  occ. eigenvalues --   -0.59717  -0.58408  -0.58385  -0.57435  -0.57267
 Alpha  occ. eigenvalues --   -0.57041  -0.57001  -0.56973  -0.54731  -0.53457
 Alpha  occ. eigenvalues --   -0.53405  -0.52648  -0.50952  -0.50844  -0.49740
 Alpha  occ. eigenvalues --   -0.49635  -0.49611  -0.47178  -0.45926  -0.44983
 Alpha  occ. eigenvalues --   -0.44792  -0.41783  -0.41645  -0.37652
 Alpha virt. eigenvalues --   -0.10241  -0.08966  -0.08859  -0.08003  -0.07856
 Alpha virt. eigenvalues --   -0.04604  -0.00929   0.00421   0.00547   0.01278
 Alpha virt. eigenvalues --    0.01474   0.02072   0.02999   0.03107   0.03470

  Beta  occ. eigenvalues --  -19.00848 -19.00824 -19.00818 -14.30421 -10.17963
  Beta  occ. eigenvalues --  -10.17937 -10.17921 -10.16766 -10.16764 -10.16754
  Beta  occ. eigenvalues --  -10.14003 -10.13962 -10.13923 -10.13071 -10.13040
  Beta  occ. eigenvalues --  -10.13026 -10.12743 -10.12718 -10.12689 -10.12001
  Beta  occ. eigenvalues --  -10.11968 -10.11956 -10.11591 -10.11569 -10.11544
  Beta  occ. eigenvalues --   -1.20783  -1.20751  -1.20732  -1.15088  -1.02950
  Beta  occ. eigenvalues --   -1.02931  -1.00838  -0.93863  -0.93710  -0.92181
  Beta  occ. eigenvalues --   -0.92021  -0.91734  -0.89723  -0.86498  -0.86024
  Beta  occ. eigenvalues --   -0.83726  -0.80675  -0.79531  -0.78914  -0.77578
  Beta  occ. eigenvalues --   -0.76845  -0.74624  -0.72714  -0.72679  -0.70327
  Beta  occ. eigenvalues --   -0.69201  -0.69149  -0.67582  -0.65891  -0.65673
  Beta  occ. eigenvalues --   -0.63132  -0.63103  -0.63048  -0.62562  -0.62518
  Beta  occ. eigenvalues --   -0.62461  -0.60516  -0.60393  -0.60382  -0.59603
  Beta  occ. eigenvalues --   -0.59549  -0.58353  -0.58335  -0.57265  -0.57030
  Beta  occ. eigenvalues --   -0.56754  -0.56741  -0.56702  -0.54171  -0.53346
  Beta  occ. eigenvalues --   -0.53302  -0.52148  -0.50367  -0.50252  -0.49623
  Beta  occ. eigenvalues --   -0.49549  -0.49523  -0.45671  -0.45325  -0.44707
  Beta  occ. eigenvalues --   -0.44482  -0.40419  -0.40203
  Beta virt. eigenvalues --   -0.22498  -0.09865  -0.08321  -0.08166  -0.07498
  Beta virt. eigenvalues --   -0.07294  -0.03440  -0.00855   0.00482   0.00601
  Beta virt. eigenvalues --    0.01340   0.01529   0.02109   0.03064   0.03156

 Mulliken charges and spin densities:
               1          2
     1  N    0.083111   0.338784
     2  C   -0.107625   0.004381
     3  C   -0.068792   0.087671
     4  C   -0.056194   0.063845
     5  C   -0.189620  -0.035238
     6  C   -0.199149  -0.035093
     7  C    0.157350   0.094082
     8  H    0.168093  -0.004091
     9  H    0.169199  -0.002817
    10  H    0.173738   0.001483
    11  H    0.153476   0.001724
    12  C   -0.099643   0.003729
    13  C   -0.078892   0.089824
    14  C   -0.052428   0.064330
    15  C   -0.189054  -0.037447
    16  C   -0.198542  -0.033490
    17  C    0.157387   0.096021
    18  H    0.168177  -0.004156
    19  H    0.171371  -0.002948
    20  H    0.174019   0.001506
    21  H    0.153719   0.001691
    22  O   -0.101690   0.037675
    23  C   -0.259916  -0.003488
    24  H    0.142552   0.003202
    25  H    0.145578   0.003189
    26  H    0.172264  -0.000093
    27  O   -0.102180   0.036531
    28  C   -0.259699  -0.003409
    29  H    0.142853   0.003100
    30  H    0.144849   0.003105
    31  H    0.172188  -0.000090
    32  C   -0.085583   0.003318
    33  C   -0.079333   0.091869
    34  C   -0.064724   0.066677
    35  C   -0.188078  -0.036449
    36  C   -0.197390  -0.035973
    37  C    0.157510   0.099230
    38  H    0.171124  -0.004385
    39  H    0.171816  -0.003013
    40  H    0.174020   0.001483
    41  H    0.154103   0.001710
    42  O   -0.101147   0.039122
    43  C   -0.259908  -0.003634
    44  H    0.143707   0.003305
    45  H    0.145059   0.003323
    46  H    0.172322  -0.000096
 Sum of Mulliken charges =   1.00000   1.00000

 Dipole moment (field-independent basis, Debye):
    X=              1.1106    Y=              1.2662    Z=             -0.7858  Tot=              1.8585
 Quadrupole moment (field-independent basis, Debye-Ang):
   XX=            -67.5161   YY=            -97.0045   ZZ=           -137.4995
   XY=             -0.3739   XZ=              6.6736   YZ=             -7.3230

 Normal termination of Gaussian 16 at Sun Jan 17 04:04:31 2021.
