 Gaussian 16, Revision A.03,
 Gaussian 16:  EM64L-G16RevA.03 25-Dec-2016

 ----------------------------------------------------------------------
 #P LC-wHPBE/TZVP iop(3/107=0199600000, 3/108=0199600000) scf=(conver=6
 ,fermi,ndamp=35,noincfock,novaracc,vshift=500,xqc)
 ----------------------------------------------------------------------

 -------------
 H21 C21 N1 O3
 -------------
 Symbolic Z-matrix:
 Charge =  1 Multiplicity = 2

                         Standard orientation:
 ---------------------------------------------------------------------
 Center     Atomic      Atomic             Coordinates (Angstroms)
 Number     Number       Type             X           Y           Z
 ---------------------------------------------------------------------
      1          7           0       -0.054086   -0.063852    0.077784
      2          6           0        0.275154    1.311734    0.103506
      3          6           0        1.260864    1.827996   -0.723750
      4          6           0       -0.386136    2.184815    0.970218
      5          6           0        1.598383    3.175646   -0.688444
      6          6           0       -0.074578    3.526309    0.994438
      7          6           0        0.925199    4.034430    0.167909
      8          1           0        1.784639    1.164376   -1.405148
      9          1           0       -1.158634    1.797039    1.627427
     10          1           0        2.379443    3.537518   -1.347421
     11          1           0       -0.588854    4.206820    1.665799
     12          6           0        0.970368   -1.034170   -0.019727
     13          6           0        2.134785   -0.917605    0.724871
     14          6           0        0.835798   -2.133662   -0.869883
     15          6           0        3.151989   -1.858173    0.623575
     16          6           0        1.829783   -3.083911   -0.958163
     17          6           0        3.000538   -2.952780   -0.215611
     18          1           0        2.255494   -0.070395    1.393250
     19          1           0       -0.067506   -2.240735   -1.462783
     20          1           0        4.048238   -1.726663    1.219136
     21          1           0        1.725248   -3.941045   -1.615932
     22          8           0        3.928452   -3.936732   -0.380204
     23          6           0        5.121819   -3.840278    0.365278
     24          1           0        5.681123   -2.930405    0.115451
     25          1           0        4.925954   -3.859222    1.444250
     26          1           0        5.719913   -4.710923    0.096466
     27          8           0        1.168219    5.370782    0.273837
     28          6           0        2.170457    5.919716   -0.552884
     29          1           0        3.151069    5.472721   -0.348812
     30          1           0        1.930215    5.794071   -1.615623
     31          1           0        2.208574    6.983731   -0.319613
     32          6           0       -1.409258   -0.466483    0.091838
     33          6           0       -2.372325    0.232607   -0.620224
     34          6           0       -1.812213   -1.581496    0.830640
     35          6           0       -3.707828   -0.150755   -0.593850
     36          6           0       -3.129962   -1.982236    0.842322
     37          6           0       -4.092694   -1.267170    0.133583
     38          1           0       -2.078678    1.100647   -1.202616
     39          1           0       -1.073245   -2.139336    1.397822
     40          1           0       -4.429565    0.427687   -1.159301
     41          1           0       -3.443944   -2.850000    1.413878
     42          8           0       -5.369584   -1.734983    0.218075
     43          6           0       -6.368506   -1.037348   -0.492266
     44          1           0       -6.460713   -0.000869   -0.145468
     45          1           0       -6.173119   -1.041209   -1.571513
     46          1           0       -7.303574   -1.562500   -0.297656
 ---------------------------------------------------------------------

 SCF Done:  E(ULC-wHPBE) =  -1092.39113614     A.U. after   18 cycles

 The electronic state is 2-A.
 Alpha  occ. eigenvalues --  -19.01480 -19.01459 -19.01459 -14.31865 -10.18693
 Alpha  occ. eigenvalues --  -10.18670 -10.18658 -10.17345 -10.17343 -10.17333
 Alpha  occ. eigenvalues --  -10.14563 -10.14521 -10.14483 -10.13810 -10.13780
 Alpha  occ. eigenvalues --  -10.13769 -10.13447 -10.13423 -10.13397 -10.12551
 Alpha  occ. eigenvalues --  -10.12516 -10.12505 -10.12136 -10.12116 -10.12089
 Alpha  occ. eigenvalues --   -1.21538  -1.21511  -1.21499  -1.16735  -1.03779
 Alpha  occ. eigenvalues --   -1.03767  -1.01741  -0.94664  -0.94509  -0.92901
 Alpha  occ. eigenvalues --   -0.92747  -0.92459  -0.90625  -0.87121  -0.86636
 Alpha  occ. eigenvalues --   -0.84527  -0.81442  -0.80273  -0.79647  -0.78318
 Alpha  occ. eigenvalues --   -0.77535  -0.75284  -0.73377  -0.73344  -0.70912
 Alpha  occ. eigenvalues --   -0.69799  -0.69761  -0.68599  -0.66466  -0.66260
 Alpha  occ. eigenvalues --   -0.63880  -0.63857  -0.63807  -0.63152  -0.63103
 Alpha  occ. eigenvalues --   -0.63030  -0.61089  -0.60935  -0.60919  -0.60584
 Alpha  occ. eigenvalues --   -0.60153  -0.58844  -0.58824  -0.57887  -0.57733
 Alpha  occ. eigenvalues --   -0.57502  -0.57455  -0.57420  -0.55180  -0.53878
 Alpha  occ. eigenvalues --   -0.53824  -0.53078  -0.51368  -0.51260  -0.50147
 Alpha  occ. eigenvalues --   -0.50041  -0.50016  -0.47598  -0.46277  -0.45327
 Alpha  occ. eigenvalues --   -0.45135  -0.42102  -0.41964  -0.37960
 Alpha virt. eigenvalues --   -0.10011  -0.08741  -0.08635  -0.07754  -0.07608
 Alpha virt. eigenvalues --   -0.04355  -0.00696   0.00671   0.00798   0.01516
 Alpha virt. eigenvalues --    0.01714   0.02311   0.03267   0.03360   0.03711

  Beta  occ. eigenvalues --  -19.01372 -19.01348 -19.01343 -14.31076 -10.18566
  Beta  occ. eigenvalues --  -10.18540 -10.18524 -10.17372 -10.17369 -10.17359
  Beta  occ. eigenvalues --  -10.14568 -10.14526 -10.14488 -10.13678 -10.13646
  Beta  occ. eigenvalues --  -10.13633 -10.13346 -10.13322 -10.13293 -10.12584
  Beta  occ. eigenvalues --  -10.12551 -10.12539 -10.12172 -10.12150 -10.12126
  Beta  occ. eigenvalues --   -1.21354  -1.21321  -1.21303  -1.15741  -1.03579
  Beta  occ. eigenvalues --   -1.03560  -1.01454  -0.94460  -0.94306  -0.92779
  Beta  occ. eigenvalues --   -0.92618  -0.92331  -0.90288  -0.87057  -0.86581
  Beta  occ. eigenvalues --   -0.84278  -0.81228  -0.80078  -0.79462  -0.78113
  Beta  occ. eigenvalues --   -0.77377  -0.75153  -0.73238  -0.73201  -0.70806
  Beta  occ. eigenvalues --   -0.69667  -0.69620  -0.68082  -0.66369  -0.66154
  Beta  occ. eigenvalues --   -0.63618  -0.63588  -0.63532  -0.63038  -0.62993
  Beta  occ. eigenvalues --   -0.62936  -0.60983  -0.60855  -0.60844  -0.60038
  Beta  occ. eigenvalues --   -0.60009  -0.58789  -0.58774  -0.57702  -0.57467
  Beta  occ. eigenvalues --   -0.57215  -0.57197  -0.57161  -0.54590  -0.53765
  Beta  occ. eigenvalues --   -0.53720  -0.52567  -0.50757  -0.50640  -0.50029
  Beta  occ. eigenvalues --   -0.49955  -0.49929  -0.46018  -0.45657  -0.45050
  Beta  occ. eigenvalues --   -0.44822  -0.40697  -0.40477
  Beta virt. eigenvalues --   -0.22396  -0.09626  -0.08083  -0.07931  -0.07228
  Beta virt. eigenvalues --   -0.07025  -0.03136  -0.00623   0.00732   0.00851
  Beta virt. eigenvalues --    0.01579   0.01768   0.02347   0.03324   0.03417

 Mulliken charges and spin densities:
               1          2
     1  N    0.082633   0.344925
     2  C   -0.109077   0.001561
     3  C   -0.068648   0.089986
     4  C   -0.056096   0.065983
     5  C   -0.191165  -0.037931
     6  C   -0.200379  -0.037653
     7  C    0.157129   0.096171
     8  H    0.169537  -0.004176
     9  H    0.170683  -0.002893
    10  H    0.174981   0.001584
    11  H    0.154638   0.001826
    12  C   -0.101084   0.000894
    13  C   -0.078676   0.092197
    14  C   -0.052397   0.066497
    15  C   -0.190590  -0.040175
    16  C   -0.199763  -0.036113
    17  C    0.157174   0.098165
    18  H    0.169612  -0.004243
    19  H    0.172850  -0.003027
    20  H    0.175259   0.001608
    21  H    0.154880   0.001796
    22  O   -0.102323   0.037167
    23  C   -0.259341  -0.003480
    24  H    0.142170   0.003152
    25  H    0.145189   0.003138
    26  H    0.172090  -0.000091
    27  O   -0.102810   0.036035
    28  C   -0.259124  -0.003400
    29  H    0.142473   0.003052
    30  H    0.144461   0.003055
    31  H    0.172015  -0.000088
    32  C   -0.086996   0.000466
    33  C   -0.079194   0.094307
    34  C   -0.064636   0.068922
    35  C   -0.189598  -0.039278
    36  C   -0.198591  -0.038654
    37  C    0.157304   0.101463
    38  H    0.172562  -0.004476
    39  H    0.173293  -0.003095
    40  H    0.175261   0.001588
    41  H    0.155264   0.001817
    42  O   -0.101783   0.038612
    43  C   -0.259337  -0.003626
    44  H    0.143327   0.003255
    45  H    0.144671   0.003270
    46  H    0.172151  -0.000093
 Sum of Mulliken charges =   1.00000   1.00000

 Dipole moment (field-independent basis, Debye):
    X=              1.1125    Y=              1.2687    Z=             -0.7867  Tot=              1.8618
 Quadrupole moment (field-independent basis, Debye-Ang):
   XX=            -67.6330   YY=            -97.1588   ZZ=           -137.4486
   XY=             -0.3742   XZ=              6.6920   YZ=             -7.3434

 Normal termination of Gaussian 16 at Sun Jan 17 01:17:13 2021.
