 Gaussian 16, Revision A.03,
 Gaussian 16:  EM64L-G16RevA.03 25-Dec-2016

 ----------------------------------------------------------------------
 #P LC-wHPBE/TZVP iop(3/107=0191100000, 3/108=0191100000) scf=(conver=6
 ,fermi,ndamp=35,noincfock,novaracc,vshift=500,xqc)
 ----------------------------------------------------------------------

 -------------
 H21 C21 N1 O3
 -------------
 Symbolic Z-matrix:
 Charge =  1 Multiplicity = 2

                         Standard orientation:
 ---------------------------------------------------------------------
 Center     Atomic      Atomic             Coordinates (Angstroms)
 Number     Number       Type             X           Y           Z
 ---------------------------------------------------------------------
      1          7           0       -0.054086   -0.063852    0.077784
      2          6           0        0.275154    1.311734    0.103506
      3          6           0        1.260864    1.827996   -0.723750
      4          6           0       -0.386136    2.184815    0.970218
      5          6           0        1.598383    3.175646   -0.688444
      6          6           0       -0.074578    3.526309    0.994438
      7          6           0        0.925199    4.034430    0.167909
      8          1           0        1.784639    1.164376   -1.405148
      9          1           0       -1.158634    1.797039    1.627427
     10          1           0        2.379443    3.537518   -1.347421
     11          1           0       -0.588854    4.206820    1.665799
     12          6           0        0.970368   -1.034170   -0.019727
     13          6           0        2.134785   -0.917605    0.724871
     14          6           0        0.835798   -2.133662   -0.869883
     15          6           0        3.151989   -1.858173    0.623575
     16          6           0        1.829783   -3.083911   -0.958163
     17          6           0        3.000538   -2.952780   -0.215611
     18          1           0        2.255494   -0.070395    1.393250
     19          1           0       -0.067506   -2.240735   -1.462783
     20          1           0        4.048238   -1.726663    1.219136
     21          1           0        1.725248   -3.941045   -1.615932
     22          8           0        3.928452   -3.936732   -0.380204
     23          6           0        5.121819   -3.840278    0.365278
     24          1           0        5.681123   -2.930405    0.115451
     25          1           0        4.925954   -3.859222    1.444250
     26          1           0        5.719913   -4.710923    0.096466
     27          8           0        1.168219    5.370782    0.273837
     28          6           0        2.170457    5.919716   -0.552884
     29          1           0        3.151069    5.472721   -0.348812
     30          1           0        1.930215    5.794071   -1.615623
     31          1           0        2.208574    6.983731   -0.319613
     32          6           0       -1.409258   -0.466483    0.091838
     33          6           0       -2.372325    0.232607   -0.620224
     34          6           0       -1.812213   -1.581496    0.830640
     35          6           0       -3.707828   -0.150755   -0.593850
     36          6           0       -3.129962   -1.982236    0.842322
     37          6           0       -4.092694   -1.267170    0.133583
     38          1           0       -2.078678    1.100647   -1.202616
     39          1           0       -1.073245   -2.139336    1.397822
     40          1           0       -4.429565    0.427687   -1.159301
     41          1           0       -3.443944   -2.850000    1.413878
     42          8           0       -5.369584   -1.734983    0.218075
     43          6           0       -6.368506   -1.037348   -0.492266
     44          1           0       -6.460713   -0.000869   -0.145468
     45          1           0       -6.173119   -1.041209   -1.571513
     46          1           0       -7.303574   -1.562500   -0.297656
 ---------------------------------------------------------------------

 SCF Done:  E(ULC-wHPBE) =  -1092.37927634     A.U. after   18 cycles

 The electronic state is 2-A.
 Alpha  occ. eigenvalues --  -19.01044 -19.01024 -19.01022 -14.31309 -10.18189
 Alpha  occ. eigenvalues --  -10.18165 -10.18153 -10.16844 -10.16842 -10.16832
 Alpha  occ. eigenvalues --  -10.14093 -10.14051 -10.14012 -10.13302 -10.13272
 Alpha  occ. eigenvalues --  -10.13261 -10.12942 -10.12918 -10.12891 -10.12068
 Alpha  occ. eigenvalues --  -10.12032 -10.12022 -10.11655 -10.11635 -10.11607
 Alpha  occ. eigenvalues --   -1.21064  -1.21037  -1.21024  -1.16178  -1.03254
 Alpha  occ. eigenvalues --   -1.03242  -1.01224  -0.94166  -0.94012  -0.92403
 Alpha  occ. eigenvalues --   -0.92249  -0.91961  -0.90146  -0.86656  -0.86174
 Alpha  occ. eigenvalues --   -0.84063  -0.80980  -0.79816  -0.79190  -0.77869
 Alpha  occ. eigenvalues --   -0.77092  -0.74844  -0.72940  -0.72909  -0.70512
 Alpha  occ. eigenvalues --   -0.69410  -0.69369  -0.68168  -0.66067  -0.65859
 Alpha  occ. eigenvalues --   -0.63474  -0.63451  -0.63402  -0.62755  -0.62706
 Alpha  occ. eigenvalues --   -0.62634  -0.60696  -0.60550  -0.60534  -0.60189
 Alpha  occ. eigenvalues --   -0.59791  -0.58481  -0.58458  -0.57511  -0.57345
 Alpha  occ. eigenvalues --   -0.57119  -0.57077  -0.57049  -0.54807  -0.53528
 Alpha  occ. eigenvalues --   -0.53475  -0.52721  -0.51022  -0.50914  -0.49809
 Alpha  occ. eigenvalues --   -0.49704  -0.49679  -0.47249  -0.45986  -0.45042
 Alpha  occ. eigenvalues --   -0.44851  -0.41837  -0.41699  -0.37705
 Alpha virt. eigenvalues --   -0.10202  -0.08928  -0.08820  -0.07960  -0.07814
 Alpha virt. eigenvalues --   -0.04561  -0.00889   0.00464   0.00590   0.01319
 Alpha virt. eigenvalues --    0.01515   0.02113   0.03046   0.03149   0.03511

  Beta  occ. eigenvalues --  -19.00935 -19.00912 -19.00906 -14.30530 -10.18063
  Beta  occ. eigenvalues --  -10.18037 -10.18021 -10.16867 -10.16865 -10.16855
  Beta  occ. eigenvalues --  -10.14097 -10.14056 -10.14017 -10.13172 -10.13141
  Beta  occ. eigenvalues --  -10.13127 -10.12843 -10.12819 -10.12790 -10.12099
  Beta  occ. eigenvalues --  -10.12066 -10.12053 -10.11688 -10.11666 -10.11641
  Beta  occ. eigenvalues --   -1.20879  -1.20846  -1.20827  -1.15197  -1.03055
  Beta  occ. eigenvalues --   -1.03036  -1.00940  -0.93962  -0.93809  -0.92281
  Beta  occ. eigenvalues --   -0.92121  -0.91834  -0.89817  -0.86592  -0.86117
  Beta  occ. eigenvalues --   -0.83818  -0.80767  -0.79623  -0.79006  -0.77667
  Beta  occ. eigenvalues --   -0.76935  -0.74713  -0.72802  -0.72766  -0.70407
  Beta  occ. eigenvalues --   -0.69279  -0.69228  -0.67666  -0.65971  -0.65754
  Beta  occ. eigenvalues --   -0.63214  -0.63185  -0.63129  -0.62642  -0.62598
  Beta  occ. eigenvalues --   -0.62540  -0.60595  -0.60471  -0.60460  -0.59676
  Beta  occ. eigenvalues --   -0.59627  -0.58426  -0.58409  -0.57338  -0.57104
  Beta  occ. eigenvalues --   -0.56832  -0.56818  -0.56780  -0.54242  -0.53417
  Beta  occ. eigenvalues --   -0.53373  -0.52219  -0.50433  -0.50318  -0.49691
  Beta  occ. eigenvalues --   -0.49618  -0.49592  -0.45730  -0.45381  -0.44765
  Beta  occ. eigenvalues --   -0.44540  -0.40466  -0.40249
  Beta virt. eigenvalues --   -0.22480  -0.09824  -0.08280  -0.08125  -0.07452
  Beta virt. eigenvalues --   -0.07248  -0.03388  -0.00815   0.00524   0.00643
  Beta virt. eigenvalues --    0.01381   0.01570   0.02150   0.03109   0.03200

 Mulliken charges and spin densities:
               1          2
     1  N    0.083038   0.339819
     2  C   -0.107856   0.003916
     3  C   -0.068762   0.088053
     4  C   -0.056168   0.064198
     5  C   -0.189880  -0.035682
     6  C   -0.199360  -0.035514
     7  C    0.157317   0.094423
     8  H    0.168327  -0.004105
     9  H    0.169439  -0.002829
    10  H    0.173939   0.001500
    11  H    0.153661   0.001740
    12  C   -0.099873   0.003262
    13  C   -0.078851   0.090215
    14  C   -0.052413   0.064688
    15  C   -0.189311  -0.037897
    16  C   -0.198751  -0.033922
    17  C    0.157356   0.096371
    18  H    0.168408  -0.004170
    19  H    0.171611  -0.002961
    20  H    0.174220   0.001523
    21  H    0.153904   0.001708
    22  O   -0.101790   0.037586
    23  C   -0.259811  -0.003487
    24  H    0.142485   0.003193
    25  H    0.145510   0.003180
    26  H    0.172232  -0.000093
    27  O   -0.102280   0.036445
    28  C   -0.259594  -0.003407
    29  H    0.142787   0.003092
    30  H    0.144781   0.003096
    31  H    0.172156  -0.000090
    32  C   -0.085809   0.002848
    33  C   -0.079305   0.092271
    34  C   -0.064700   0.067047
    35  C   -0.188333  -0.036915
    36  C   -0.197595  -0.036414
    37  C    0.157480   0.099594
    38  H    0.171356  -0.004400
    39  H    0.172055  -0.003027
    40  H    0.174221   0.001500
    41  H    0.154288   0.001728
    42  O   -0.101248   0.039033
    43  C   -0.259803  -0.003632
    44  H    0.143640   0.003297
    45  H    0.144991   0.003314
    46  H    0.172291  -0.000096
 Sum of Mulliken charges =   1.00000   1.00000

 Dipole moment (field-independent basis, Debye):
    X=              1.1109    Y=              1.2666    Z=             -0.7860  Tot=              1.8590
 Quadrupole moment (field-independent basis, Debye-Ang):
   XX=            -67.5362   YY=            -97.0305   ZZ=           -137.4910
   XY=             -0.3739   XZ=              6.6766   YZ=             -7.3263

 Normal termination of Gaussian 16 at Sun Jan 17 01:45:04 2021.
