 Gaussian 16, Revision A.03,
 Gaussian 16:  EM64L-G16RevA.03 25-Dec-2016

 ----------------------------------------------------------------------
 #P LC-wHPBE/TZVP iop(3/107=0221900000, 3/108=0221900000) scf=(conver=6
 ,fermi,ndamp=35,noincfock,novaracc,vshift=500,xqc)
 ----------------------------------------------------------------------

 -------------
 H21 C21 N1 O3
 -------------
 Symbolic Z-matrix:
 Charge =  0 Multiplicity = 1

                         Standard orientation:
 ---------------------------------------------------------------------
 Center     Atomic      Atomic             Coordinates (Angstroms)
 Number     Number       Type             X           Y           Z
 ---------------------------------------------------------------------
      1          7           0       -0.054086   -0.063852    0.077784
      2          6           0        0.275154    1.311734    0.103506
      3          6           0        1.260864    1.827996   -0.723750
      4          6           0       -0.386136    2.184815    0.970218
      5          6           0        1.598383    3.175646   -0.688444
      6          6           0       -0.074578    3.526309    0.994438
      7          6           0        0.925199    4.034430    0.167909
      8          1           0        1.784639    1.164376   -1.405148
      9          1           0       -1.158634    1.797039    1.627427
     10          1           0        2.379443    3.537518   -1.347421
     11          1           0       -0.588854    4.206820    1.665799
     12          6           0        0.970368   -1.034170   -0.019727
     13          6           0        2.134785   -0.917605    0.724871
     14          6           0        0.835798   -2.133662   -0.869883
     15          6           0        3.151989   -1.858173    0.623575
     16          6           0        1.829783   -3.083911   -0.958163
     17          6           0        3.000538   -2.952780   -0.215611
     18          1           0        2.255494   -0.070395    1.393250
     19          1           0       -0.067506   -2.240735   -1.462783
     20          1           0        4.048238   -1.726663    1.219136
     21          1           0        1.725248   -3.941045   -1.615932
     22          8           0        3.928452   -3.936732   -0.380204
     23          6           0        5.121819   -3.840278    0.365278
     24          1           0        5.681123   -2.930405    0.115451
     25          1           0        4.925954   -3.859222    1.444250
     26          1           0        5.719913   -4.710923    0.096466
     27          8           0        1.168219    5.370782    0.273837
     28          6           0        2.170457    5.919716   -0.552884
     29          1           0        3.151069    5.472721   -0.348812
     30          1           0        1.930215    5.794071   -1.615623
     31          1           0        2.208574    6.983731   -0.319613
     32          6           0       -1.409258   -0.466483    0.091838
     33          6           0       -2.372325    0.232607   -0.620224
     34          6           0       -1.812213   -1.581496    0.830640
     35          6           0       -3.707828   -0.150755   -0.593850
     36          6           0       -3.129962   -1.982236    0.842322
     37          6           0       -4.092694   -1.267170    0.133583
     38          1           0       -2.078678    1.100647   -1.202616
     39          1           0       -1.073245   -2.139336    1.397822
     40          1           0       -4.429565    0.427687   -1.159301
     41          1           0       -3.443944   -2.850000    1.413878
     42          8           0       -5.369584   -1.734983    0.218075
     43          6           0       -6.368506   -1.037348   -0.492266
     44          1           0       -6.460713   -0.000869   -0.145468
     45          1           0       -6.173119   -1.041209   -1.571513
     46          1           0       -7.303574   -1.562500   -0.297656
 ---------------------------------------------------------------------

 SCF Done:  E(RLC-wHPBE) =  -1092.64978396     A.U. after   14 cycles

 The electronic state is 1-A.
 Alpha  occ. eigenvalues --  -18.90388 -18.90320 -18.90235 -14.13048 -10.06324
 Alpha  occ. eigenvalues --  -10.06257 -10.06164 -10.05941 -10.05880 -10.05795
 Alpha  occ. eigenvalues --  -10.04098 -10.04068 -10.04035 -10.00863 -10.00819
 Alpha  occ. eigenvalues --  -10.00734 -10.00733 -10.00705 -10.00688 -10.00648
 Alpha  occ. eigenvalues --  -10.00607 -10.00583 -10.00465 -10.00400 -10.00339
 Alpha  occ. eigenvalues --   -1.10817  -1.10749  -1.10663  -1.01000  -0.91248
 Alpha  occ. eigenvalues --   -0.91178  -0.89264  -0.82388  -0.82209  -0.80977
 Alpha  occ. eigenvalues --   -0.80771  -0.80289  -0.79219  -0.76334  -0.75943
 Alpha  occ. eigenvalues --   -0.73134  -0.68868  -0.68105  -0.67412  -0.66100
 Alpha  occ. eigenvalues --   -0.65699  -0.63297  -0.61076  -0.61024  -0.60105
 Alpha  occ. eigenvalues --   -0.58250  -0.58046  -0.55941  -0.54551  -0.54331
 Alpha  occ. eigenvalues --   -0.53777  -0.53713  -0.53627  -0.51319  -0.51285
 Alpha  occ. eigenvalues --   -0.51130  -0.49279  -0.49151  -0.48984  -0.48817
 Alpha  occ. eigenvalues --   -0.47996  -0.47896  -0.47799  -0.45868  -0.45753
 Alpha  occ. eigenvalues --   -0.45544  -0.45234  -0.44819  -0.43115  -0.42302
 Alpha  occ. eigenvalues --   -0.42101  -0.40749  -0.39685  -0.39532  -0.39149
 Alpha  occ. eigenvalues --   -0.38948  -0.38854  -0.34499  -0.33574  -0.32712
 Alpha  occ. eigenvalues --   -0.32480  -0.29767  -0.29553  -0.23345
 Alpha virt. eigenvalues --    0.03570   0.05362   0.05477   0.05984   0.06171
 Alpha virt. eigenvalues --    0.10174   0.10716   0.11123   0.11168   0.12918
 Alpha virt. eigenvalues --    0.13020   0.13133   0.14328   0.14865   0.15080

 Mulliken charges:
               1
     1  N   -0.017029
     2  C   -0.091377
     3  C   -0.096746
     4  C   -0.073979
     5  C   -0.204560
     6  C   -0.215579
     7  C    0.133841
     8  H    0.142029
     9  H    0.142431
    10  H    0.140107
    11  H    0.113651
    12  C   -0.085491
    13  C   -0.107145
    14  C   -0.071818
    15  C   -0.203639
    16  C   -0.215408
    17  C    0.133327
    18  H    0.141311
    19  H    0.145835
    20  H    0.140200
    21  H    0.113771
    22  O   -0.137491
    23  C   -0.241258
    24  H    0.123703
    25  H    0.125619
    26  H    0.144043
    27  O   -0.137602
    28  C   -0.241153
    29  H    0.124146
    30  H    0.125247
    31  H    0.144069
    32  C   -0.073215
    33  C   -0.109737
    34  C   -0.084662
    35  C   -0.203465
    36  C   -0.214094
    37  C    0.132993
    38  H    0.145392
    39  H    0.145364
    40  H    0.140005
    41  H    0.113788
    42  O   -0.137667
    43  C   -0.241039
    44  H    0.124449
    45  H    0.124975
    46  H    0.143857
 Sum of Mulliken charges =  -0.00000

 Dipole moment (field-independent basis, Debye):
    X=              1.2262    Y=              1.3589    Z=             -0.8028  Tot=              1.9986
 Quadrupole moment (field-independent basis, Debye-Ang):
   XX=           -118.7256   YY=           -142.7611   ZZ=           -145.6790
   XY=             -0.4042   XZ=              6.7211   YZ=             -7.3865

 Normal termination of Gaussian 16 at Sat Jan 16 23:35:56 2021.
