 Gaussian 16, Revision A.03,
 Gaussian 16:  EM64L-G16RevA.03 25-Dec-2016

 ----------------------------------------------------------------------
 #P LC-wHPBE/TZVP iop(3/107=0221900000, 3/108=0221900000) scf=(conver=6
 ,fermi,ndamp=35,noincfock,novaracc,vshift=500,xqc)
 ----------------------------------------------------------------------

 -------------
 H21 C21 N1 O3
 -------------
 Symbolic Z-matrix:
 Charge =  1 Multiplicity = 2

                         Standard orientation:
 ---------------------------------------------------------------------
 Center     Atomic      Atomic             Coordinates (Angstroms)
 Number     Number       Type             X           Y           Z
 ---------------------------------------------------------------------
      1          7           0       -0.054086   -0.063852    0.077784
      2          6           0        0.275154    1.311734    0.103506
      3          6           0        1.260864    1.827996   -0.723750
      4          6           0       -0.386136    2.184815    0.970218
      5          6           0        1.598383    3.175646   -0.688444
      6          6           0       -0.074578    3.526309    0.994438
      7          6           0        0.925199    4.034430    0.167909
      8          1           0        1.784639    1.164376   -1.405148
      9          1           0       -1.158634    1.797039    1.627427
     10          1           0        2.379443    3.537518   -1.347421
     11          1           0       -0.588854    4.206820    1.665799
     12          6           0        0.970368   -1.034170   -0.019727
     13          6           0        2.134785   -0.917605    0.724871
     14          6           0        0.835798   -2.133662   -0.869883
     15          6           0        3.151989   -1.858173    0.623575
     16          6           0        1.829783   -3.083911   -0.958163
     17          6           0        3.000538   -2.952780   -0.215611
     18          1           0        2.255494   -0.070395    1.393250
     19          1           0       -0.067506   -2.240735   -1.462783
     20          1           0        4.048238   -1.726663    1.219136
     21          1           0        1.725248   -3.941045   -1.615932
     22          8           0        3.928452   -3.936732   -0.380204
     23          6           0        5.121819   -3.840278    0.365278
     24          1           0        5.681123   -2.930405    0.115451
     25          1           0        4.925954   -3.859222    1.444250
     26          1           0        5.719913   -4.710923    0.096466
     27          8           0        1.168219    5.370782    0.273837
     28          6           0        2.170457    5.919716   -0.552884
     29          1           0        3.151069    5.472721   -0.348812
     30          1           0        1.930215    5.794071   -1.615623
     31          1           0        2.208574    6.983731   -0.319613
     32          6           0       -1.409258   -0.466483    0.091838
     33          6           0       -2.372325    0.232607   -0.620224
     34          6           0       -1.812213   -1.581496    0.830640
     35          6           0       -3.707828   -0.150755   -0.593850
     36          6           0       -3.129962   -1.982236    0.842322
     37          6           0       -4.092694   -1.267170    0.133583
     38          1           0       -2.078678    1.100647   -1.202616
     39          1           0       -1.073245   -2.139336    1.397822
     40          1           0       -4.429565    0.427687   -1.159301
     41          1           0       -3.443944   -2.850000    1.413878
     42          8           0       -5.369584   -1.734983    0.218075
     43          6           0       -6.368506   -1.037348   -0.492266
     44          1           0       -6.460713   -0.000869   -0.145468
     45          1           0       -6.173119   -1.041209   -1.571513
     46          1           0       -7.303574   -1.562500   -0.297656
 ---------------------------------------------------------------------

 SCF Done:  E(ULC-wHPBE) =  -1092.42170216     A.U. after   18 cycles

 The electronic state is 2-A.
 Alpha  occ. eigenvalues --  -19.02621 -19.02600 -19.02598 -14.33313 -10.20017
 Alpha  occ. eigenvalues --  -10.19994 -10.19984 -10.18659 -10.18655 -10.18645
 Alpha  occ. eigenvalues --  -10.15799 -10.15756 -10.15718 -10.15139 -10.15109
 Alpha  occ. eigenvalues --  -10.15100 -10.14769 -10.14746 -10.14720 -10.13818
 Alpha  occ. eigenvalues --  -10.13782 -10.13772 -10.13400 -10.13379 -10.13353
 Alpha  occ. eigenvalues --   -1.22783  -1.22755  -1.22744  -1.18187  -1.05151
 Alpha  occ. eigenvalues --   -1.05140  -1.03093  -0.95957  -0.95800  -0.94196
 Alpha  occ. eigenvalues --   -0.94040  -0.93750  -0.91866  -0.88321  -0.87831
 Alpha  occ. eigenvalues --   -0.85723  -0.82631  -0.81447  -0.80821  -0.79467
 Alpha  occ. eigenvalues --   -0.78673  -0.76409  -0.74489  -0.74452  -0.71930
 Alpha  occ. eigenvalues --   -0.70787  -0.70760  -0.69696  -0.67478  -0.67279
 Alpha  occ. eigenvalues --   -0.64916  -0.64894  -0.64841  -0.64157  -0.64108
 Alpha  occ. eigenvalues --   -0.64032  -0.62084  -0.61909  -0.61894  -0.61585
 Alpha  occ. eigenvalues --   -0.61068  -0.59761  -0.59749  -0.58843  -0.58719
 Alpha  occ. eigenvalues --   -0.58459  -0.58412  -0.58340  -0.56119  -0.54760
 Alpha  occ. eigenvalues --   -0.54702  -0.53976  -0.52232  -0.52123  -0.51000
 Alpha  occ. eigenvalues --   -0.50890  -0.50865  -0.48471  -0.46987  -0.46025
 Alpha  occ. eigenvalues --   -0.45831  -0.42755  -0.42614  -0.38588
 Alpha virt. eigenvalues --   -0.09565  -0.08302  -0.08197  -0.07267  -0.07121
 Alpha virt. eigenvalues --   -0.03866  -0.00240   0.01164   0.01292   0.01982
 Alpha virt. eigenvalues --    0.02180   0.02778   0.03764   0.03890   0.04184

  Beta  occ. eigenvalues --  -19.02515 -19.02488 -19.02486 -14.32496 -10.19884
  Beta  occ. eigenvalues --  -10.19858 -10.19844 -10.18694 -10.18690 -10.18680
  Beta  occ. eigenvalues --  -10.15803 -10.15761 -10.15723 -10.15001 -10.14969
  Beta  occ. eigenvalues --  -10.14957 -10.14663 -10.14639 -10.14611 -10.13857
  Beta  occ. eigenvalues --  -10.13824 -10.13812 -10.13442 -10.13419 -10.13396
  Beta  occ. eigenvalues --   -1.22600  -1.22566  -1.22548  -1.17162  -1.04949
  Beta  occ. eigenvalues --   -1.04930  -1.02794  -0.95751  -0.95595  -0.94073
  Beta  occ. eigenvalues --   -0.93911  -0.93623  -0.91506  -0.88259  -0.87777
  Beta  occ. eigenvalues --   -0.85463  -0.82410  -0.81245  -0.80633  -0.79255
  Beta  occ. eigenvalues --   -0.78510  -0.76277  -0.74349  -0.74307  -0.71821
  Beta  occ. eigenvalues --   -0.70652  -0.70616  -0.69139  -0.67379  -0.67171
  Beta  occ. eigenvalues --   -0.64645  -0.64615  -0.64556  -0.64039  -0.63995
  Beta  occ. eigenvalues --   -0.63936  -0.61965  -0.61826  -0.61814  -0.60981
  Beta  occ. eigenvalues --   -0.60945  -0.59707  -0.59698  -0.58621  -0.58390
  Beta  occ. eigenvalues --   -0.58174  -0.58140  -0.58118  -0.55463  -0.54642
  Beta  occ. eigenvalues --   -0.54593  -0.53437  -0.51564  -0.51445  -0.50878
  Beta  occ. eigenvalues --   -0.50804  -0.50778  -0.46723  -0.46341  -0.45748
  Beta  occ. eigenvalues --   -0.45515  -0.41269  -0.41042
  Beta virt. eigenvalues --   -0.22199  -0.09160  -0.07618  -0.07470  -0.06695
  Beta virt. eigenvalues --   -0.06493  -0.02528  -0.00169   0.01224   0.01343
  Beta virt. eigenvalues --    0.02046   0.02234   0.02813   0.03809   0.03957

 Mulliken charges and spin densities:
               1          2
     1  N    0.081291   0.357745
     2  C   -0.112728  -0.004847
     3  C   -0.068610   0.095265
     4  C   -0.056346   0.070860
     5  C   -0.194435  -0.044091
     6  C   -0.202803  -0.043538
     7  C    0.156497   0.101128
     8  H    0.173039  -0.004367
     9  H    0.174268  -0.003065
    10  H    0.177963   0.001813
    11  H    0.157568   0.002057
    12  C   -0.104683  -0.005552
    13  C   -0.078479   0.097609
    14  C   -0.052790   0.071431
    15  C   -0.193862  -0.046428
    16  C   -0.202155  -0.042129
    17  C    0.156551   0.103246
    18  H    0.173103  -0.004439
    19  H    0.176412  -0.003203
    20  H    0.178235   0.001839
    21  H    0.157806   0.002033
    22  O   -0.103974   0.036228
    23  C   -0.258576  -0.003471
    24  H    0.141508   0.003059
    25  H    0.144514   0.003045
    26  H    0.171866  -0.000086
    27  O   -0.104464   0.035116
    28  C   -0.258354  -0.003390
    29  H    0.141814   0.002962
    30  H    0.143787   0.002964
    31  H    0.171793  -0.000083
    32  C   -0.090523  -0.006023
    33  C   -0.079146   0.099863
    34  C   -0.064893   0.074038
    35  C   -0.192831  -0.045751
    36  C   -0.200966  -0.044815
    37  C    0.156698   0.106749
    38  H    0.176047  -0.004679
    39  H    0.176858  -0.003279
    40  H    0.178237   0.001828
    41  H    0.158190   0.002059
    42  O   -0.103441   0.037666
    43  C   -0.258580  -0.003619
    44  H    0.142667   0.003162
    45  H    0.143996   0.003175
    46  H    0.171934  -0.000088
 Sum of Mulliken charges =   1.00000   1.00000

 Dipole moment (field-independent basis, Debye):
    X=              1.1174    Y=              1.2750    Z=             -0.7893  Tot=              1.8701
 Quadrupole moment (field-independent basis, Debye-Ang):
   XX=            -67.8599   YY=            -97.4807   ZZ=           -137.3365
   XY=             -0.3751   XZ=              6.7352   YZ=             -7.3915

 Normal termination of Gaussian 16 at Sat Jan 16 23:53:12 2021.
