 Gaussian 16, Revision A.03,
 Gaussian 16:  EM64L-G16RevA.03 25-Dec-2016

 ----------------------------------------------------------------------
 #P LC-wHPBE/TZVP iop(3/107=0177800000, 3/108=0177800000) scf=(conver=6
 ,fermi,ndamp=35,noincfock,novaracc,vshift=500,xqc)
 ----------------------------------------------------------------------

 -------------
 H21 C21 N1 O3
 -------------
 Symbolic Z-matrix:
 Charge =  0 Multiplicity = 1

                         Standard orientation:
 ---------------------------------------------------------------------
 Center     Atomic      Atomic             Coordinates (Angstroms)
 Number     Number       Type             X           Y           Z
 ---------------------------------------------------------------------
      1          7           0       -0.054086   -0.063852    0.077784
      2          6           0        0.275154    1.311734    0.103506
      3          6           0        1.260864    1.827996   -0.723750
      4          6           0       -0.386136    2.184815    0.970218
      5          6           0        1.598383    3.175646   -0.688444
      6          6           0       -0.074578    3.526309    0.994438
      7          6           0        0.925199    4.034430    0.167909
      8          1           0        1.784639    1.164376   -1.405148
      9          1           0       -1.158634    1.797039    1.627427
     10          1           0        2.379443    3.537518   -1.347421
     11          1           0       -0.588854    4.206820    1.665799
     12          6           0        0.970368   -1.034170   -0.019727
     13          6           0        2.134785   -0.917605    0.724871
     14          6           0        0.835798   -2.133662   -0.869883
     15          6           0        3.151989   -1.858173    0.623575
     16          6           0        1.829783   -3.083911   -0.958163
     17          6           0        3.000538   -2.952780   -0.215611
     18          1           0        2.255494   -0.070395    1.393250
     19          1           0       -0.067506   -2.240735   -1.462783
     20          1           0        4.048238   -1.726663    1.219136
     21          1           0        1.725248   -3.941045   -1.615932
     22          8           0        3.928452   -3.936732   -0.380204
     23          6           0        5.121819   -3.840278    0.365278
     24          1           0        5.681123   -2.930405    0.115451
     25          1           0        4.925954   -3.859222    1.444250
     26          1           0        5.719913   -4.710923    0.096466
     27          8           0        1.168219    5.370782    0.273837
     28          6           0        2.170457    5.919716   -0.552884
     29          1           0        3.151069    5.472721   -0.348812
     30          1           0        1.930215    5.794071   -1.615623
     31          1           0        2.208574    6.983731   -0.319613
     32          6           0       -1.409258   -0.466483    0.091838
     33          6           0       -2.372325    0.232607   -0.620224
     34          6           0       -1.812213   -1.581496    0.830640
     35          6           0       -3.707828   -0.150755   -0.593850
     36          6           0       -3.129962   -1.982236    0.842322
     37          6           0       -4.092694   -1.267170    0.133583
     38          1           0       -2.078678    1.100647   -1.202616
     39          1           0       -1.073245   -2.139336    1.397822
     40          1           0       -4.429565    0.427687   -1.159301
     41          1           0       -3.443944   -2.850000    1.413878
     42          8           0       -5.369584   -1.734983    0.218075
     43          6           0       -6.368506   -1.037348   -0.492266
     44          1           0       -6.460713   -0.000869   -0.145468
     45          1           0       -6.173119   -1.041209   -1.571513
     46          1           0       -7.303574   -1.562500   -0.297656
 ---------------------------------------------------------------------

 SCF Done:  E(RLC-wHPBE) =  -1092.58513517     A.U. after   14 cycles

 The electronic state is 1-A.
 Alpha  occ. eigenvalues --  -18.88084 -18.88018 -18.87934 -14.10727 -10.03768
 Alpha  occ. eigenvalues --  -10.03703 -10.03611 -10.03467 -10.03408 -10.03323
 Alpha  occ. eigenvalues --  -10.01567 -10.01537 -10.01504  -9.98362  -9.98318
 Alpha  occ. eigenvalues --   -9.98234  -9.98217  -9.98191  -9.98173  -9.98134
 Alpha  occ. eigenvalues --   -9.98093  -9.98071  -9.97973  -9.97910  -9.97848
 Alpha  occ. eigenvalues --   -1.08331  -1.08265  -1.08180  -0.98412  -0.88604
 Alpha  occ. eigenvalues --   -0.88535  -0.86666  -0.79890  -0.79722  -0.78453
 Alpha  occ. eigenvalues --   -0.78252  -0.77775  -0.76788  -0.73940  -0.73555
 Alpha  occ. eigenvalues --   -0.70772  -0.66562  -0.65819  -0.65117  -0.63871
 Alpha  occ. eigenvalues --   -0.63482  -0.61096  -0.58933  -0.58867  -0.58067
 Alpha  occ. eigenvalues --   -0.56293  -0.56067  -0.53860  -0.52554  -0.52325
 Alpha  occ. eigenvalues --   -0.51703  -0.51640  -0.51556  -0.49334  -0.49300
 Alpha  occ. eigenvalues --   -0.49151  -0.47369  -0.47242  -0.47072  -0.46881
 Alpha  occ. eigenvalues --   -0.46156  -0.46034  -0.45960  -0.43907  -0.43752
 Alpha  occ. eigenvalues --   -0.43569  -0.43426  -0.43075  -0.41314  -0.40529
 Alpha  occ. eigenvalues --   -0.40347  -0.38947  -0.37911  -0.37760  -0.37428
 Alpha  occ. eigenvalues --   -0.37238  -0.37149  -0.32837  -0.32155  -0.31307
 Alpha  occ. eigenvalues --   -0.31081  -0.28441  -0.28234  -0.22247
 Alpha virt. eigenvalues --    0.02593   0.04366   0.04487   0.04915   0.05103
 Alpha virt. eigenvalues --    0.09057   0.09726   0.10135   0.10180   0.11871
 Alpha virt. eigenvalues --    0.11945   0.12043   0.13154   0.13829   0.14005

 Mulliken charges:
               1
     1  N   -0.003204
     2  C   -0.088117
     3  C   -0.095321
     4  C   -0.073061
     5  C   -0.199818
     6  C   -0.211247
     7  C    0.136782
     8  H    0.135673
     9  H    0.135809
    10  H    0.134373
    11  H    0.107861
    12  C   -0.082205
    13  C   -0.105942
    14  C   -0.070572
    15  C   -0.198959
    16  C   -0.211153
    17  C    0.136285
    18  H    0.134968
    19  H    0.139247
    20  H    0.134478
    21  H    0.107985
    22  O   -0.135484
    23  C   -0.243728
    24  H    0.124754
    25  H    0.126698
    26  H    0.144578
    27  O   -0.135592
    28  C   -0.243621
    29  H    0.125191
    30  H    0.126333
    31  H    0.144599
    32  C   -0.069963
    33  C   -0.108159
    34  C   -0.083561
    35  C   -0.198905
    36  C   -0.209942
    37  C    0.136021
    38  H    0.139067
    39  H    0.138774
    40  H    0.134289
    41  H    0.108008
    42  O   -0.135659
    43  C   -0.243496
    44  H    0.125491
    45  H    0.126061
    46  H    0.144385
 Sum of Mulliken charges =  -0.00000

 Dipole moment (field-independent basis, Debye):
    X=              1.2080    Y=              1.3384    Z=             -0.7911  Tot=              1.9688
 Quadrupole moment (field-independent basis, Debye-Ang):
   XX=           -118.9383   YY=           -142.6422   ZZ=           -145.9528
   XY=             -0.3985   XZ=              6.6128   YZ=             -7.2673

 Normal termination of Gaussian 16 at Sun Jan 17 01:55:40 2021.
