 Gaussian 16, Revision A.03,
 Gaussian 16:  EM64L-G16RevA.03 25-Dec-2016

 ----------------------------------------------------------------------
 #P LC-wHPBE/TZVP iop(3/107=0188400000, 3/108=0188400000) scf=(conver=6
 ,fermi,ndamp=35,noincfock,novaracc,vshift=500,xqc)
 ----------------------------------------------------------------------

 -------------
 H21 C21 N1 O3
 -------------
 Symbolic Z-matrix:
 Charge =  0 Multiplicity = 1

                         Standard orientation:
 ---------------------------------------------------------------------
 Center     Atomic      Atomic             Coordinates (Angstroms)
 Number     Number       Type             X           Y           Z
 ---------------------------------------------------------------------
      1          7           0       -0.054086   -0.063852    0.077784
      2          6           0        0.275154    1.311734    0.103506
      3          6           0        1.260864    1.827996   -0.723750
      4          6           0       -0.386136    2.184815    0.970218
      5          6           0        1.598383    3.175646   -0.688444
      6          6           0       -0.074578    3.526309    0.994438
      7          6           0        0.925199    4.034430    0.167909
      8          1           0        1.784639    1.164376   -1.405148
      9          1           0       -1.158634    1.797039    1.627427
     10          1           0        2.379443    3.537518   -1.347421
     11          1           0       -0.588854    4.206820    1.665799
     12          6           0        0.970368   -1.034170   -0.019727
     13          6           0        2.134785   -0.917605    0.724871
     14          6           0        0.835798   -2.133662   -0.869883
     15          6           0        3.151989   -1.858173    0.623575
     16          6           0        1.829783   -3.083911   -0.958163
     17          6           0        3.000538   -2.952780   -0.215611
     18          1           0        2.255494   -0.070395    1.393250
     19          1           0       -0.067506   -2.240735   -1.462783
     20          1           0        4.048238   -1.726663    1.219136
     21          1           0        1.725248   -3.941045   -1.615932
     22          8           0        3.928452   -3.936732   -0.380204
     23          6           0        5.121819   -3.840278    0.365278
     24          1           0        5.681123   -2.930405    0.115451
     25          1           0        4.925954   -3.859222    1.444250
     26          1           0        5.719913   -4.710923    0.096466
     27          8           0        1.168219    5.370782    0.273837
     28          6           0        2.170457    5.919716   -0.552884
     29          1           0        3.151069    5.472721   -0.348812
     30          1           0        1.930215    5.794071   -1.615623
     31          1           0        2.208574    6.983731   -0.319613
     32          6           0       -1.409258   -0.466483    0.091838
     33          6           0       -2.372325    0.232607   -0.620224
     34          6           0       -1.812213   -1.581496    0.830640
     35          6           0       -3.707828   -0.150755   -0.593850
     36          6           0       -3.129962   -1.982236    0.842322
     37          6           0       -4.092694   -1.267170    0.133583
     38          1           0       -2.078678    1.100647   -1.202616
     39          1           0       -1.073245   -2.139336    1.397822
     40          1           0       -4.429565    0.427687   -1.159301
     41          1           0       -3.443944   -2.850000    1.413878
     42          8           0       -5.369584   -1.734983    0.218075
     43          6           0       -6.368506   -1.037348   -0.492266
     44          1           0       -6.460713   -0.000869   -0.145468
     45          1           0       -6.173119   -1.041209   -1.571513
     46          1           0       -7.303574   -1.562500   -0.297656
 ---------------------------------------------------------------------

 SCF Done:  E(RLC-wHPBE) =  -1092.60090814     A.U. after   14 cycles

 The electronic state is 1-A.
 Alpha  occ. eigenvalues --  -18.88642 -18.88575 -18.88491 -14.11285 -10.04382
 Alpha  occ. eigenvalues --  -10.04317 -10.04224 -10.04062 -10.04002 -10.03918
 Alpha  occ. eigenvalues --  -10.02175 -10.02146 -10.02112  -9.98963  -9.98919
 Alpha  occ. eigenvalues --   -9.98835  -9.98821  -9.98795  -9.98777  -9.98738
 Alpha  occ. eigenvalues --   -9.98697  -9.98675  -9.98572  -9.98508  -9.98447
 Alpha  occ. eigenvalues --   -1.08930  -1.08864  -1.08779  -0.99033  -0.89240
 Alpha  occ. eigenvalues --   -0.89171  -0.87292  -0.80496  -0.80326  -0.79065
 Alpha  occ. eigenvalues --   -0.78863  -0.78385  -0.77380  -0.74524  -0.74138
 Alpha  occ. eigenvalues --   -0.71350  -0.67128  -0.66380  -0.65680  -0.64419
 Alpha  occ. eigenvalues --   -0.64028  -0.61639  -0.59464  -0.59402  -0.58574
 Alpha  occ. eigenvalues --   -0.56781  -0.56559  -0.54376  -0.53052  -0.52824
 Alpha  occ. eigenvalues --   -0.52217  -0.52154  -0.52069  -0.49829  -0.49795
 Alpha  occ. eigenvalues --   -0.49645  -0.47846  -0.47718  -0.47549  -0.47364
 Alpha  occ. eigenvalues --   -0.46615  -0.46499  -0.46420  -0.44395  -0.44253
 Alpha  occ. eigenvalues --   -0.44064  -0.43883  -0.43513  -0.41766  -0.40974
 Alpha  occ. eigenvalues --   -0.40787  -0.39400  -0.38359  -0.38208  -0.37861
 Alpha  occ. eigenvalues --   -0.37668  -0.37578  -0.33259  -0.32523  -0.31671
 Alpha  occ. eigenvalues --   -0.31443  -0.28784  -0.28575  -0.22531
 Alpha virt. eigenvalues --    0.02857   0.04632   0.04752   0.05202   0.05389
 Alpha virt. eigenvalues --    0.09355   0.09992   0.10400   0.10445   0.12154
 Alpha virt. eigenvalues --    0.12231   0.12333   0.13465   0.14107   0.14293

 Mulliken charges:
               1
     1  N   -0.006386
     2  C   -0.088665
     3  C   -0.095493
     4  C   -0.073026
     5  C   -0.201016
     6  C   -0.212432
     7  C    0.136208
     8  H    0.136996
     9  H    0.137198
    10  H    0.135595
    11  H    0.109023
    12  C   -0.082773
    13  C   -0.106062
    14  C   -0.070619
    15  C   -0.200134
    16  C   -0.212325
    17  C    0.135709
    18  H    0.136282
    19  H    0.140635
    20  H    0.135697
    21  H    0.109146
    22  O   -0.135816
    23  C   -0.242893
    24  H    0.124428
    25  H    0.126365
    26  H    0.144372
    27  O   -0.135925
    28  C   -0.242787
    29  H    0.124866
    30  H    0.125998
    31  H    0.144394
    32  C   -0.070528
    33  C   -0.108379
    34  C   -0.083579
    35  C   -0.200055
    36  C   -0.211080
    37  C    0.135427
    38  H    0.140384
    39  H    0.140157
    40  H    0.135506
    41  H    0.109167
    42  O   -0.135991
    43  C   -0.242663
    44  H    0.125167
    45  H    0.125725
    46  H    0.144179
 Sum of Mulliken charges =  -0.00000

 Dipole moment (field-independent basis, Debye):
    X=              1.2122    Y=              1.3431    Z=             -0.7938  Tot=              1.9758
 Quadrupole moment (field-independent basis, Debye-Ang):
   XX=           -118.8911   YY=           -142.6706   ZZ=           -145.8879
   XY=             -0.3998   XZ=              6.6377   YZ=             -7.2947

 Normal termination of Gaussian 16 at Sun Jan 17 03:18:59 2021.
