 Gaussian 16, Revision A.03,
 Gaussian 16:  EM64L-G16RevA.03 25-Dec-2016

 ----------------------------------------------------------------------
 #P LC-wHPBE/TZVP iop(3/107=0189000000, 3/108=0189000000) scf=(conver=6
 ,fermi,ndamp=35,noincfock,novaracc,vshift=500,xqc)
 ----------------------------------------------------------------------

 -------------
 H21 C21 N1 O3
 -------------
 Symbolic Z-matrix:
 Charge =  1 Multiplicity = 2

                         Standard orientation:
 ---------------------------------------------------------------------
 Center     Atomic      Atomic             Coordinates (Angstroms)
 Number     Number       Type             X           Y           Z
 ---------------------------------------------------------------------
      1          7           0       -0.054086   -0.063852    0.077784
      2          6           0        0.275154    1.311734    0.103506
      3          6           0        1.260864    1.827996   -0.723750
      4          6           0       -0.386136    2.184815    0.970218
      5          6           0        1.598383    3.175646   -0.688444
      6          6           0       -0.074578    3.526309    0.994438
      7          6           0        0.925199    4.034430    0.167909
      8          1           0        1.784639    1.164376   -1.405148
      9          1           0       -1.158634    1.797039    1.627427
     10          1           0        2.379443    3.537518   -1.347421
     11          1           0       -0.588854    4.206820    1.665799
     12          6           0        0.970368   -1.034170   -0.019727
     13          6           0        2.134785   -0.917605    0.724871
     14          6           0        0.835798   -2.133662   -0.869883
     15          6           0        3.151989   -1.858173    0.623575
     16          6           0        1.829783   -3.083911   -0.958163
     17          6           0        3.000538   -2.952780   -0.215611
     18          1           0        2.255494   -0.070395    1.393250
     19          1           0       -0.067506   -2.240735   -1.462783
     20          1           0        4.048238   -1.726663    1.219136
     21          1           0        1.725248   -3.941045   -1.615932
     22          8           0        3.928452   -3.936732   -0.380204
     23          6           0        5.121819   -3.840278    0.365278
     24          1           0        5.681123   -2.930405    0.115451
     25          1           0        4.925954   -3.859222    1.444250
     26          1           0        5.719913   -4.710923    0.096466
     27          8           0        1.168219    5.370782    0.273837
     28          6           0        2.170457    5.919716   -0.552884
     29          1           0        3.151069    5.472721   -0.348812
     30          1           0        1.930215    5.794071   -1.615623
     31          1           0        2.208574    6.983731   -0.319613
     32          6           0       -1.409258   -0.466483    0.091838
     33          6           0       -2.372325    0.232607   -0.620224
     34          6           0       -1.812213   -1.581496    0.830640
     35          6           0       -3.707828   -0.150755   -0.593850
     36          6           0       -3.129962   -1.982236    0.842322
     37          6           0       -4.092694   -1.267170    0.133583
     38          1           0       -2.078678    1.100647   -1.202616
     39          1           0       -1.073245   -2.139336    1.397822
     40          1           0       -4.429565    0.427687   -1.159301
     41          1           0       -3.443944   -2.850000    1.413878
     42          8           0       -5.369584   -1.734983    0.218075
     43          6           0       -6.368506   -1.037348   -0.492266
     44          1           0       -6.460713   -0.000869   -0.145468
     45          1           0       -6.173119   -1.041209   -1.571513
     46          1           0       -7.303574   -1.562500   -0.297656
 ---------------------------------------------------------------------

 SCF Done:  E(ULC-wHPBE) =  -1092.37633536     A.U. after   18 cycles

 The electronic state is 2-A.
 Alpha  occ. eigenvalues --  -19.00936 -19.00916 -19.00914 -14.31171 -10.18064
 Alpha  occ. eigenvalues --  -10.18041 -10.18029 -10.16720 -10.16719 -10.16708
 Alpha  occ. eigenvalues --  -10.13976 -10.13935 -10.13896 -10.13176 -10.13147
 Alpha  occ. eigenvalues --  -10.13135 -10.12817 -10.12793 -10.12766 -10.11949
 Alpha  occ. eigenvalues --  -10.11913 -10.11902 -10.11536 -10.11516 -10.11488
 Alpha  occ. eigenvalues --   -1.20946  -1.20919  -1.20907  -1.16041  -1.03124
 Alpha  occ. eigenvalues --   -1.03112  -1.01096  -0.94042  -0.93889  -0.92279
 Alpha  occ. eigenvalues --   -0.92125  -0.91838  -0.90027  -0.86541  -0.86059
 Alpha  occ. eigenvalues --   -0.83948  -0.80865  -0.79702  -0.79077  -0.77758
 Alpha  occ. eigenvalues --   -0.76981  -0.74734  -0.72831  -0.72800  -0.70412
 Alpha  occ. eigenvalues --   -0.69313  -0.69271  -0.68061  -0.65968  -0.65759
 Alpha  occ. eigenvalues --   -0.63372  -0.63349  -0.63301  -0.62656  -0.62606
 Alpha  occ. eigenvalues --   -0.62535  -0.60598  -0.60453  -0.60437  -0.60091
 Alpha  occ. eigenvalues --   -0.59700  -0.58391  -0.58367  -0.57417  -0.57249
 Alpha  occ. eigenvalues --   -0.57023  -0.56983  -0.56955  -0.54713  -0.53440
 Alpha  occ. eigenvalues --   -0.53388  -0.52631  -0.50935  -0.50828  -0.49724
 Alpha  occ. eigenvalues --   -0.49619  -0.49595  -0.47161  -0.45912  -0.44970
 Alpha  occ. eigenvalues --   -0.44779  -0.41770  -0.41632  -0.37640
 Alpha virt. eigenvalues --   -0.10251  -0.08975  -0.08868  -0.08013  -0.07866
 Alpha virt. eigenvalues --   -0.04614  -0.00938   0.00411   0.00536   0.01268
 Alpha virt. eigenvalues --    0.01465   0.02062   0.02988   0.03096   0.03460

  Beta  occ. eigenvalues --  -19.00827 -19.00804 -19.00797 -14.30395 -10.17939
  Beta  occ. eigenvalues --  -10.17913 -10.17897 -10.16742 -10.16741 -10.16730
  Beta  occ. eigenvalues --  -10.13981 -10.13939 -10.13901 -10.13047 -10.13016
  Beta  occ. eigenvalues --  -10.13002 -10.12719 -10.12695 -10.12666 -10.11979
  Beta  occ. eigenvalues --  -10.11946 -10.11933 -10.11569 -10.11546 -10.11522
  Beta  occ. eigenvalues --   -1.20761  -1.20729  -1.20709  -1.15062  -1.02925
  Beta  occ. eigenvalues --   -1.02906  -1.00813  -0.93839  -0.93686  -0.92157
  Beta  occ. eigenvalues --   -0.91997  -0.91711  -0.89701  -0.86476  -0.86002
  Beta  occ. eigenvalues --   -0.83704  -0.80653  -0.79510  -0.78893  -0.77556
  Beta  occ. eigenvalues --   -0.76824  -0.74603  -0.72693  -0.72658  -0.70308
  Beta  occ. eigenvalues --   -0.69182  -0.69130  -0.67562  -0.65872  -0.65654
  Beta  occ. eigenvalues --   -0.63113  -0.63084  -0.63029  -0.62544  -0.62499
  Beta  occ. eigenvalues --   -0.62442  -0.60498  -0.60375  -0.60364  -0.59585
  Beta  occ. eigenvalues --   -0.59531  -0.58336  -0.58317  -0.57247  -0.57013
  Beta  occ. eigenvalues --   -0.56736  -0.56723  -0.56684  -0.54154  -0.53330
  Beta  occ. eigenvalues --   -0.53286  -0.52132  -0.50351  -0.50236  -0.49607
  Beta  occ. eigenvalues --   -0.49533  -0.49507  -0.45657  -0.45312  -0.44693
  Beta  occ. eigenvalues --   -0.44468  -0.40408  -0.40192
  Beta virt. eigenvalues --   -0.22502  -0.09875  -0.08330  -0.08175  -0.07509
  Beta virt. eigenvalues --   -0.07304  -0.03452  -0.00865   0.00471   0.00590
  Beta virt. eigenvalues --    0.01331   0.01519   0.02099   0.03053   0.03146

 Mulliken charges and spin densities:
               1          2
     1  N    0.083128   0.338540
     2  C   -0.107571   0.004490
     3  C   -0.068799   0.087581
     4  C   -0.056201   0.063762
     5  C   -0.189559  -0.035134
     6  C   -0.199099  -0.034994
     7  C    0.157357   0.094002
     8  H    0.168039  -0.004087
     9  H    0.169143  -0.002814
    10  H    0.173691   0.001479
    11  H    0.153433   0.001720
    12  C   -0.099589   0.003839
    13  C   -0.078903   0.089732
    14  C   -0.052432   0.064247
    15  C   -0.188993  -0.037342
    16  C   -0.198493  -0.033389
    17  C    0.157395   0.095939
    18  H    0.168123  -0.004152
    19  H    0.171315  -0.002945
    20  H    0.173972   0.001502
    21  H    0.153676   0.001687
    22  O   -0.101667   0.037696
    23  C   -0.259941  -0.003489
    24  H    0.142568   0.003204
    25  H    0.145594   0.003192
    26  H    0.172272  -0.000094
    27  O   -0.102157   0.036552
    28  C   -0.259724  -0.003409
    29  H    0.142869   0.003102
    30  H    0.144866   0.003107
    31  H    0.172195  -0.000090
    32  C   -0.085530   0.003429
    33  C   -0.079340   0.091775
    34  C   -0.064730   0.066590
    35  C   -0.188018  -0.036340
    36  C   -0.197341  -0.035869
    37  C    0.157517   0.099144
    38  H    0.171069  -0.004381
    39  H    0.171760  -0.003010
    40  H    0.173973   0.001479
    41  H    0.154060   0.001706
    42  O   -0.101123   0.039143
    43  C   -0.259933  -0.003634
    44  H    0.143723   0.003308
    45  H    0.145075   0.003325
    46  H    0.172330  -0.000096
 Sum of Mulliken charges =   1.00000   1.00000

 Dipole moment (field-independent basis, Debye):
    X=              1.1105    Y=              1.2661    Z=             -0.7858  Tot=              1.8584
 Quadrupole moment (field-independent basis, Debye-Ang):
   XX=            -67.5114   YY=            -96.9984   ZZ=           -137.5015
   XY=             -0.3739   XZ=              6.6729   YZ=             -7.3222

 Normal termination of Gaussian 16 at Sun Jan 17 02:40:38 2021.
