 Gaussian 16, Revision A.03,
 Gaussian 16:  EM64L-G16RevA.03 25-Dec-2016

 ----------------------------------------------------------------------
 #P LC-wHPBE/TZVP iop(3/107=0184700000, 3/108=0184700000) scf=(conver=6
 ,fermi,ndamp=35,noincfock,novaracc,vshift=500,xqc)
 ----------------------------------------------------------------------

 -------------
 H21 C21 N1 O3
 -------------
 Symbolic Z-matrix:
 Charge =  0 Multiplicity = 1

                         Standard orientation:
 ---------------------------------------------------------------------
 Center     Atomic      Atomic             Coordinates (Angstroms)
 Number     Number       Type             X           Y           Z
 ---------------------------------------------------------------------
      1          7           0       -0.054086   -0.063852    0.077784
      2          6           0        0.275154    1.311734    0.103506
      3          6           0        1.260864    1.827996   -0.723750
      4          6           0       -0.386136    2.184815    0.970218
      5          6           0        1.598383    3.175646   -0.688444
      6          6           0       -0.074578    3.526309    0.994438
      7          6           0        0.925199    4.034430    0.167909
      8          1           0        1.784639    1.164376   -1.405148
      9          1           0       -1.158634    1.797039    1.627427
     10          1           0        2.379443    3.537518   -1.347421
     11          1           0       -0.588854    4.206820    1.665799
     12          6           0        0.970368   -1.034170   -0.019727
     13          6           0        2.134785   -0.917605    0.724871
     14          6           0        0.835798   -2.133662   -0.869883
     15          6           0        3.151989   -1.858173    0.623575
     16          6           0        1.829783   -3.083911   -0.958163
     17          6           0        3.000538   -2.952780   -0.215611
     18          1           0        2.255494   -0.070395    1.393250
     19          1           0       -0.067506   -2.240735   -1.462783
     20          1           0        4.048238   -1.726663    1.219136
     21          1           0        1.725248   -3.941045   -1.615932
     22          8           0        3.928452   -3.936732   -0.380204
     23          6           0        5.121819   -3.840278    0.365278
     24          1           0        5.681123   -2.930405    0.115451
     25          1           0        4.925954   -3.859222    1.444250
     26          1           0        5.719913   -4.710923    0.096466
     27          8           0        1.168219    5.370782    0.273837
     28          6           0        2.170457    5.919716   -0.552884
     29          1           0        3.151069    5.472721   -0.348812
     30          1           0        1.930215    5.794071   -1.615623
     31          1           0        2.208574    6.983731   -0.319613
     32          6           0       -1.409258   -0.466483    0.091838
     33          6           0       -2.372325    0.232607   -0.620224
     34          6           0       -1.812213   -1.581496    0.830640
     35          6           0       -3.707828   -0.150755   -0.593850
     36          6           0       -3.129962   -1.982236    0.842322
     37          6           0       -4.092694   -1.267170    0.133583
     38          1           0       -2.078678    1.100647   -1.202616
     39          1           0       -1.073245   -2.139336    1.397822
     40          1           0       -4.429565    0.427687   -1.159301
     41          1           0       -3.443944   -2.850000    1.413878
     42          8           0       -5.369584   -1.734983    0.218075
     43          6           0       -6.368506   -1.037348   -0.492266
     44          1           0       -6.460713   -0.000869   -0.145468
     45          1           0       -6.173119   -1.041209   -1.571513
     46          1           0       -7.303574   -1.562500   -0.297656
 ---------------------------------------------------------------------

 SCF Done:  E(RLC-wHPBE) =  -1092.59540948     A.U. after   14 cycles

 The electronic state is 1-A.
 Alpha  occ. eigenvalues --  -18.88447 -18.88381 -18.88297 -14.11091 -10.04167
 Alpha  occ. eigenvalues --  -10.04102 -10.04010 -10.03854 -10.03795 -10.03710
 Alpha  occ. eigenvalues --  -10.01963 -10.01933 -10.01900  -9.98753  -9.98709
 Alpha  occ. eigenvalues --   -9.98625  -9.98610  -9.98584  -9.98566  -9.98527
 Alpha  occ. eigenvalues --   -9.98486  -9.98464  -9.98363  -9.98299  -9.98238
 Alpha  occ. eigenvalues --   -1.08721  -1.08655  -1.08570  -0.98816  -0.89018
 Alpha  occ. eigenvalues --   -0.88949  -0.87073  -0.80285  -0.80115  -0.78852
 Alpha  occ. eigenvalues --   -0.78650  -0.78173  -0.77174  -0.74321  -0.73935
 Alpha  occ. eigenvalues --   -0.71149  -0.66931  -0.66185  -0.65484  -0.64229
 Alpha  occ. eigenvalues --   -0.63838  -0.61450  -0.59280  -0.59216  -0.58398
 Alpha  occ. eigenvalues --   -0.56612  -0.56389  -0.54197  -0.52879  -0.52651
 Alpha  occ. eigenvalues --   -0.52038  -0.51976  -0.51891  -0.49658  -0.49623
 Alpha  occ. eigenvalues --   -0.49474  -0.47681  -0.47553  -0.47384  -0.47197
 Alpha  occ. eigenvalues --   -0.46456  -0.46338  -0.46261  -0.44226  -0.44079
 Alpha  occ. eigenvalues --   -0.43893  -0.43725  -0.43362  -0.41610  -0.40820
 Alpha  occ. eigenvalues --   -0.40635  -0.39243  -0.38204  -0.38053  -0.37711
 Alpha  occ. eigenvalues --   -0.37520  -0.37430  -0.33113  -0.32396  -0.31545
 Alpha  occ. eigenvalues --   -0.31319  -0.28666  -0.28458  -0.22434
 Alpha virt. eigenvalues --    0.02767   0.04541   0.04661   0.05104   0.05291
 Alpha virt. eigenvalues --    0.09253   0.09901   0.10310   0.10355   0.12058
 Alpha virt. eigenvalues --    0.12133   0.12234   0.13359   0.14012   0.14195

 Mulliken charges:
               1
     1  N   -0.005262
     2  C   -0.088456
     3  C   -0.095420
     4  C   -0.073020
     5  C   -0.200601
     6  C   -0.212028
     7  C    0.136420
     8  H    0.136518
     9  H    0.136697
    10  H    0.135156
    11  H    0.108599
    12  C   -0.082558
    13  C   -0.106008
    14  C   -0.070585
    15  C   -0.199727
    16  C   -0.211926
    17  C    0.135922
    18  H    0.135807
    19  H    0.140135
    20  H    0.135259
    21  H    0.108723
    22  O   -0.135689
    23  C   -0.243169
    24  H    0.124537
    25  H    0.126476
    26  H    0.144439
    27  O   -0.135798
    28  C   -0.243062
    29  H    0.124975
    30  H    0.126110
    31  H    0.144460
    32  C   -0.070315
    33  C   -0.108291
    34  C   -0.083555
    35  C   -0.199656
    36  C   -0.210692
    37  C    0.135646
    38  H    0.139909
    39  H    0.139659
    40  H    0.135069
    41  H    0.108745
    42  O   -0.135864
    43  C   -0.242938
    44  H    0.125276
    45  H    0.125838
    46  H    0.144246
 Sum of Mulliken charges =  -0.00000

 Dipole moment (field-independent basis, Debye):
    X=              1.2107    Y=              1.3414    Z=             -0.7928  Tot=              1.9733
 Quadrupole moment (field-independent basis, Debye-Ang):
   XX=           -118.9079   YY=           -142.6606   ZZ=           -145.9106
   XY=             -0.3994   XZ=              6.6289   YZ=             -7.2850

 Normal termination of Gaussian 16 at Sun Jan 17 02:51:16 2021.
