 Gaussian 16, Revision A.03,
 Gaussian 16:  EM64L-G16RevA.03 25-Dec-2016

 ----------------------------------------------------------------------
 #P LC-wHPBE/TZVP iop(3/107=0328100000, 3/108=0328100000) scf=(conver=6
 ,fermi,ndamp=35,noincfock,novaracc,vshift=500,xqc)
 ----------------------------------------------------------------------

 -------------
 H21 C21 N1 O3
 -------------
 Symbolic Z-matrix:
 Charge =  0 Multiplicity = 1

                         Standard orientation:
 ---------------------------------------------------------------------
 Center     Atomic      Atomic             Coordinates (Angstroms)
 Number     Number       Type             X           Y           Z
 ---------------------------------------------------------------------
      1          7           0       -0.054086   -0.063852    0.077784
      2          6           0        0.275154    1.311734    0.103506
      3          6           0        1.260864    1.827996   -0.723750
      4          6           0       -0.386136    2.184815    0.970218
      5          6           0        1.598383    3.175646   -0.688444
      6          6           0       -0.074578    3.526309    0.994438
      7          6           0        0.925199    4.034430    0.167909
      8          1           0        1.784639    1.164376   -1.405148
      9          1           0       -1.158634    1.797039    1.627427
     10          1           0        2.379443    3.537518   -1.347421
     11          1           0       -0.588854    4.206820    1.665799
     12          6           0        0.970368   -1.034170   -0.019727
     13          6           0        2.134785   -0.917605    0.724871
     14          6           0        0.835798   -2.133662   -0.869883
     15          6           0        3.151989   -1.858173    0.623575
     16          6           0        1.829783   -3.083911   -0.958163
     17          6           0        3.000538   -2.952780   -0.215611
     18          1           0        2.255494   -0.070395    1.393250
     19          1           0       -0.067506   -2.240735   -1.462783
     20          1           0        4.048238   -1.726663    1.219136
     21          1           0        1.725248   -3.941045   -1.615932
     22          8           0        3.928452   -3.936732   -0.380204
     23          6           0        5.121819   -3.840278    0.365278
     24          1           0        5.681123   -2.930405    0.115451
     25          1           0        4.925954   -3.859222    1.444250
     26          1           0        5.719913   -4.710923    0.096466
     27          8           0        1.168219    5.370782    0.273837
     28          6           0        2.170457    5.919716   -0.552884
     29          1           0        3.151069    5.472721   -0.348812
     30          1           0        1.930215    5.794071   -1.615623
     31          1           0        2.208574    6.983731   -0.319613
     32          6           0       -1.409258   -0.466483    0.091838
     33          6           0       -2.372325    0.232607   -0.620224
     34          6           0       -1.812213   -1.581496    0.830640
     35          6           0       -3.707828   -0.150755   -0.593850
     36          6           0       -3.129962   -1.982236    0.842322
     37          6           0       -4.092694   -1.267170    0.133583
     38          1           0       -2.078678    1.100647   -1.202616
     39          1           0       -1.073245   -2.139336    1.397822
     40          1           0       -4.429565    0.427687   -1.159301
     41          1           0       -3.443944   -2.850000    1.413878
     42          8           0       -5.369584   -1.734983    0.218075
     43          6           0       -6.368506   -1.037348   -0.492266
     44          1           0       -6.460713   -0.000869   -0.145468
     45          1           0       -6.173119   -1.041209   -1.571513
     46          1           0       -7.303574   -1.562500   -0.297656
 ---------------------------------------------------------------------

 SCF Done:  E(RLC-wHPBE) =  -1092.77939453     A.U. after   14 cycles

 The electronic state is 1-A.
 Alpha  occ. eigenvalues --  -18.95824 -18.95753 -18.95667 -14.18645 -10.12492
 Alpha  occ. eigenvalues --  -10.12423 -10.12327 -10.11886 -10.11823 -10.11735
 Alpha  occ. eigenvalues --  -10.10194 -10.10165 -10.10135 -10.06888 -10.06843
 Alpha  occ. eigenvalues --  -10.06797 -10.06766 -10.06758 -10.06750 -10.06708
 Alpha  occ. eigenvalues --  -10.06667 -10.06641 -10.06465 -10.06399 -10.06339
 Alpha  occ. eigenvalues --   -1.16649  -1.16579  -1.16491  -1.07121  -0.97401
 Alpha  occ. eigenvalues --   -0.97329  -0.95239  -0.87998  -0.87778  -0.86662
 Alpha  occ. eigenvalues --   -0.86430  -0.85937  -0.84580  -0.81564  -0.81156
 Alpha  occ. eigenvalues --   -0.78264  -0.73799  -0.72982  -0.72322  -0.70813
 Alpha  occ. eigenvalues --   -0.70376  -0.67897  -0.65437  -0.65416  -0.64232
 Alpha  occ. eigenvalues --   -0.62217  -0.62077  -0.60194  -0.58585  -0.58407
 Alpha  occ. eigenvalues --   -0.58009  -0.57943  -0.57855  -0.55292  -0.55257
 Alpha  occ. eigenvalues --   -0.55095  -0.53105  -0.52970  -0.52815  -0.52681
 Alpha  occ. eigenvalues --   -0.51709  -0.51617  -0.51437  -0.49684  -0.49591
 Alpha  occ. eigenvalues --   -0.49359  -0.48746  -0.48258  -0.46669  -0.45807
 Alpha  occ. eigenvalues --   -0.45570  -0.44243  -0.43055  -0.42900  -0.42530
 Alpha  occ. eigenvalues --   -0.42296  -0.42196  -0.37653  -0.35977  -0.35104
 Alpha  occ. eigenvalues --   -0.34863  -0.32082  -0.31852  -0.25268
 Alpha virt. eigenvalues --    0.04909   0.06833   0.06949   0.07524   0.07722
 Alpha virt. eigenvalues --    0.11833   0.12135   0.12543   0.12583   0.14395
 Alpha virt. eigenvalues --    0.14601   0.14738   0.16093   0.16353   0.16632

 Mulliken charges:
               1
     1  N   -0.051478
     2  C   -0.104999
     3  C   -0.106590
     4  C   -0.085796
     5  C   -0.212733
     6  C   -0.220565
     7  C    0.126386
     8  H    0.162605
     9  H    0.163477
    10  H    0.157706
    11  H    0.133513
    12  C   -0.098678
    13  C   -0.116641
    14  C   -0.084048
    15  C   -0.211924
    16  C   -0.220073
    17  C    0.125737
    18  H    0.162016
    19  H    0.166615
    20  H    0.157779
    21  H    0.133639
    22  O   -0.149131
    23  C   -0.245255
    24  H    0.124545
    25  H    0.126440
    26  H    0.146018
    27  O   -0.149250
    28  C   -0.245151
    29  H    0.125004
    30  H    0.126051
    31  H    0.146052
    32  C   -0.086197
    33  C   -0.119498
    34  C   -0.096525
    35  C   -0.211443
    36  C   -0.218876
    37  C    0.125305
    38  H    0.165875
    39  H    0.166307
    40  H    0.157580
    41  H    0.133638
    42  O   -0.149308
    43  C   -0.245088
    44  H    0.125315
    45  H    0.125789
    46  H    0.145855
 Sum of Mulliken charges =  -0.00000

 Dipole moment (field-independent basis, Debye):
    X=              1.2709    Y=              1.4095    Z=             -0.8318  Tot=              2.0721
 Quadrupole moment (field-independent basis, Debye-Ang):
   XX=           -118.0872   YY=           -142.9835   ZZ=           -145.0368
   XY=             -0.4184   XZ=              6.9948   YZ=             -7.6877

 Normal termination of Gaussian 16 at Sun Jan 17 00:04:00 2021.
