 Gaussian 16, Revision A.03,
 Gaussian 16:  EM64L-G16RevA.03 25-Dec-2016

 ----------------------------------------------------------------------
 #P LC-wHPBE/TZVP iop(3/107=0188400000, 3/108=0188400000) scf=(conver=6
 ,fermi,ndamp=35,noincfock,novaracc,vshift=500,xqc)
 ----------------------------------------------------------------------

 -------------
 H21 C21 N1 O3
 -------------
 Symbolic Z-matrix:
 Charge =  1 Multiplicity = 2

                         Standard orientation:
 ---------------------------------------------------------------------
 Center     Atomic      Atomic             Coordinates (Angstroms)
 Number     Number       Type             X           Y           Z
 ---------------------------------------------------------------------
      1          7           0       -0.054086   -0.063852    0.077784
      2          6           0        0.275154    1.311734    0.103506
      3          6           0        1.260864    1.827996   -0.723750
      4          6           0       -0.386136    2.184815    0.970218
      5          6           0        1.598383    3.175646   -0.688444
      6          6           0       -0.074578    3.526309    0.994438
      7          6           0        0.925199    4.034430    0.167909
      8          1           0        1.784639    1.164376   -1.405148
      9          1           0       -1.158634    1.797039    1.627427
     10          1           0        2.379443    3.537518   -1.347421
     11          1           0       -0.588854    4.206820    1.665799
     12          6           0        0.970368   -1.034170   -0.019727
     13          6           0        2.134785   -0.917605    0.724871
     14          6           0        0.835798   -2.133662   -0.869883
     15          6           0        3.151989   -1.858173    0.623575
     16          6           0        1.829783   -3.083911   -0.958163
     17          6           0        3.000538   -2.952780   -0.215611
     18          1           0        2.255494   -0.070395    1.393250
     19          1           0       -0.067506   -2.240735   -1.462783
     20          1           0        4.048238   -1.726663    1.219136
     21          1           0        1.725248   -3.941045   -1.615932
     22          8           0        3.928452   -3.936732   -0.380204
     23          6           0        5.121819   -3.840278    0.365278
     24          1           0        5.681123   -2.930405    0.115451
     25          1           0        4.925954   -3.859222    1.444250
     26          1           0        5.719913   -4.710923    0.096466
     27          8           0        1.168219    5.370782    0.273837
     28          6           0        2.170457    5.919716   -0.552884
     29          1           0        3.151069    5.472721   -0.348812
     30          1           0        1.930215    5.794071   -1.615623
     31          1           0        2.208574    6.983731   -0.319613
     32          6           0       -1.409258   -0.466483    0.091838
     33          6           0       -2.372325    0.232607   -0.620224
     34          6           0       -1.812213   -1.581496    0.830640
     35          6           0       -3.707828   -0.150755   -0.593850
     36          6           0       -3.129962   -1.982236    0.842322
     37          6           0       -4.092694   -1.267170    0.133583
     38          1           0       -2.078678    1.100647   -1.202616
     39          1           0       -1.073245   -2.139336    1.397822
     40          1           0       -4.429565    0.427687   -1.159301
     41          1           0       -3.443944   -2.850000    1.413878
     42          8           0       -5.369584   -1.734983    0.218075
     43          6           0       -6.368506   -1.037348   -0.492266
     44          1           0       -6.460713   -0.000869   -0.145468
     45          1           0       -6.173119   -1.041209   -1.571513
     46          1           0       -7.303574   -1.562500   -0.297656
 ---------------------------------------------------------------------

 SCF Done:  E(ULC-wHPBE) =  -1092.37549448     A.U. after   18 cycles

 The electronic state is 2-A.
 Alpha  occ. eigenvalues --  -19.00905 -19.00885 -19.00883 -14.31132 -10.18029
 Alpha  occ. eigenvalues --  -10.18005 -10.17993 -10.16685 -10.16683 -10.16673
 Alpha  occ. eigenvalues --  -10.13943 -10.13902 -10.13863 -10.13140 -10.13111
 Alpha  occ. eigenvalues --  -10.13099 -10.12781 -10.12757 -10.12730 -10.11914
 Alpha  occ. eigenvalues --  -10.11879 -10.11868 -10.11502 -10.11482 -10.11454
 Alpha  occ. eigenvalues --   -1.20913  -1.20886  -1.20874  -1.16001  -1.03087
 Alpha  occ. eigenvalues --   -1.03075  -1.01059  -0.94007  -0.93853  -0.92244
 Alpha  occ. eigenvalues --   -0.92090  -0.91803  -0.89993  -0.86508  -0.86026
 Alpha  occ. eigenvalues --   -0.83915  -0.80832  -0.79670  -0.79044  -0.77726
 Alpha  occ. eigenvalues --   -0.76949  -0.74702  -0.72799  -0.72769  -0.70383
 Alpha  occ. eigenvalues --   -0.69285  -0.69243  -0.68030  -0.65939  -0.65730
 Alpha  occ. eigenvalues --   -0.63343  -0.63320  -0.63272  -0.62628  -0.62578
 Alpha  occ. eigenvalues --   -0.62507  -0.60570  -0.60426  -0.60410  -0.60062
 Alpha  occ. eigenvalues --   -0.59674  -0.58365  -0.58341  -0.57390  -0.57221
 Alpha  occ. eigenvalues --   -0.56995  -0.56956  -0.56929  -0.54686  -0.53415
 Alpha  occ. eigenvalues --   -0.53363  -0.52606  -0.50911  -0.50803  -0.49700
 Alpha  occ. eigenvalues --   -0.49595  -0.49571  -0.47136  -0.45891  -0.44949
 Alpha  occ. eigenvalues --   -0.44758  -0.41751  -0.41613  -0.37622
 Alpha virt. eigenvalues --   -0.10265  -0.08989  -0.08881  -0.08029  -0.07881
 Alpha virt. eigenvalues --   -0.04629  -0.00952   0.00395   0.00521   0.01253
 Alpha virt. eigenvalues --    0.01450   0.02047   0.02971   0.03081   0.03445

  Beta  occ. eigenvalues --  -19.00796 -19.00773 -19.00766 -14.30356 -10.17904
  Beta  occ. eigenvalues --  -10.17878 -10.17862 -10.16707 -10.16705 -10.16695
  Beta  occ. eigenvalues --  -10.13948 -10.13906 -10.13868 -10.13012 -10.12980
  Beta  occ. eigenvalues --  -10.12966 -10.12683 -10.12659 -10.12630 -10.11944
  Beta  occ. eigenvalues --  -10.11911 -10.11899 -10.11534 -10.11512 -10.11487
  Beta  occ. eigenvalues --   -1.20728  -1.20695  -1.20676  -1.15024  -1.02888
  Beta  occ. eigenvalues --   -1.02869  -1.00777  -0.93804  -0.93651  -0.92122
  Beta  occ. eigenvalues --   -0.91962  -0.91676  -0.89667  -0.86443  -0.85969
  Beta  occ. eigenvalues --   -0.83671  -0.80620  -0.79477  -0.78860  -0.77525
  Beta  occ. eigenvalues --   -0.76793  -0.74572  -0.72662  -0.72627  -0.70279
  Beta  occ. eigenvalues --   -0.69154  -0.69102  -0.67532  -0.65843  -0.65625
  Beta  occ. eigenvalues --   -0.63084  -0.63055  -0.63000  -0.62515  -0.62470
  Beta  occ. eigenvalues --   -0.62413  -0.60470  -0.60348  -0.60337  -0.59559
  Beta  occ. eigenvalues --   -0.59504  -0.58310  -0.58291  -0.57221  -0.56987
  Beta  occ. eigenvalues --   -0.56708  -0.56696  -0.56657  -0.54129  -0.53305
  Beta  occ. eigenvalues --   -0.53261  -0.52106  -0.50328  -0.50213  -0.49583
  Beta  occ. eigenvalues --   -0.49509  -0.49483  -0.45636  -0.45292  -0.44672
  Beta  occ. eigenvalues --   -0.44448  -0.40391  -0.40176
  Beta virt. eigenvalues --   -0.22508  -0.09889  -0.08345  -0.08189  -0.07525
  Beta virt. eigenvalues --   -0.07321  -0.03470  -0.00879   0.00456   0.00575
  Beta virt. eigenvalues --    0.01316   0.01505   0.02085   0.03037   0.03130

 Mulliken charges and spin densities:
               1          2
     1  N    0.083153   0.338173
     2  C   -0.107490   0.004654
     3  C   -0.068811   0.087447
     4  C   -0.056211   0.063638
     5  C   -0.189468  -0.034979
     6  C   -0.199025  -0.034846
     7  C    0.157369   0.093883
     8  H    0.167958  -0.004082
     9  H    0.169059  -0.002809
    10  H    0.173621   0.001473
    11  H    0.153368   0.001714
    12  C   -0.099509   0.004003
    13  C   -0.078918   0.089595
    14  C   -0.052438   0.064121
    15  C   -0.188902  -0.037184
    16  C   -0.198418  -0.033237
    17  C    0.157405   0.095817
    18  H    0.168042  -0.004147
    19  H    0.171232  -0.002940
    20  H    0.173901   0.001496
    21  H    0.153612   0.001681
    22  O   -0.101632   0.037727
    23  C   -0.259979  -0.003489
    24  H    0.142592   0.003207
    25  H    0.145618   0.003195
    26  H    0.172284  -0.000094
    27  O   -0.102123   0.036583
    28  C   -0.259762  -0.003410
    29  H    0.142893   0.003106
    30  H    0.144890   0.003110
    31  H    0.172207  -0.000090
    32  C   -0.085452   0.003594
    33  C   -0.079350   0.091633
    34  C   -0.064739   0.066460
    35  C   -0.187928  -0.036176
    36  C   -0.197268  -0.035714
    37  C    0.157527   0.099017
    38  H    0.170988  -0.004376
    39  H    0.171677  -0.003005
    40  H    0.173903   0.001472
    41  H    0.153996   0.001700
    42  O   -0.101088   0.039175
    43  C   -0.259971  -0.003634
    44  H    0.143747   0.003311
    45  H    0.145100   0.003328
    46  H    0.172341  -0.000096
 Sum of Mulliken charges =   1.00000   1.00000

 Dipole moment (field-independent basis, Debye):
    X=              1.1104    Y=              1.2659    Z=             -0.7857  Tot=              1.8582
 Quadrupole moment (field-independent basis, Debye-Ang):
   XX=            -67.5042   YY=            -96.9891   ZZ=           -137.5045
   XY=             -0.3738   XZ=              6.6719   YZ=             -7.3210

 Normal termination of Gaussian 16 at Sun Jan 17 03:36:12 2021.
