 Gaussian 16, Revision A.03,
 Gaussian 16:  EM64L-G16RevA.03 25-Dec-2016

 ----------------------------------------------------------------------
 #P LC-wHPBE/TZVP iop(3/107=0184700000, 3/108=0184700000) scf=(conver=6
 ,fermi,ndamp=35,noincfock,novaracc,vshift=500,xqc)
 ----------------------------------------------------------------------

 -------------
 H21 C21 N1 O3
 -------------
 Symbolic Z-matrix:
 Charge =  1 Multiplicity = 2

                         Standard orientation:
 ---------------------------------------------------------------------
 Center     Atomic      Atomic             Coordinates (Angstroms)
 Number     Number       Type             X           Y           Z
 ---------------------------------------------------------------------
      1          7           0       -0.054086   -0.063852    0.077784
      2          6           0        0.275154    1.311734    0.103506
      3          6           0        1.260864    1.827996   -0.723750
      4          6           0       -0.386136    2.184815    0.970218
      5          6           0        1.598383    3.175646   -0.688444
      6          6           0       -0.074578    3.526309    0.994438
      7          6           0        0.925199    4.034430    0.167909
      8          1           0        1.784639    1.164376   -1.405148
      9          1           0       -1.158634    1.797039    1.627427
     10          1           0        2.379443    3.537518   -1.347421
     11          1           0       -0.588854    4.206820    1.665799
     12          6           0        0.970368   -1.034170   -0.019727
     13          6           0        2.134785   -0.917605    0.724871
     14          6           0        0.835798   -2.133662   -0.869883
     15          6           0        3.151989   -1.858173    0.623575
     16          6           0        1.829783   -3.083911   -0.958163
     17          6           0        3.000538   -2.952780   -0.215611
     18          1           0        2.255494   -0.070395    1.393250
     19          1           0       -0.067506   -2.240735   -1.462783
     20          1           0        4.048238   -1.726663    1.219136
     21          1           0        1.725248   -3.941045   -1.615932
     22          8           0        3.928452   -3.936732   -0.380204
     23          6           0        5.121819   -3.840278    0.365278
     24          1           0        5.681123   -2.930405    0.115451
     25          1           0        4.925954   -3.859222    1.444250
     26          1           0        5.719913   -4.710923    0.096466
     27          8           0        1.168219    5.370782    0.273837
     28          6           0        2.170457    5.919716   -0.552884
     29          1           0        3.151069    5.472721   -0.348812
     30          1           0        1.930215    5.794071   -1.615623
     31          1           0        2.208574    6.983731   -0.319613
     32          6           0       -1.409258   -0.466483    0.091838
     33          6           0       -2.372325    0.232607   -0.620224
     34          6           0       -1.812213   -1.581496    0.830640
     35          6           0       -3.707828   -0.150755   -0.593850
     36          6           0       -3.129962   -1.982236    0.842322
     37          6           0       -4.092694   -1.267170    0.133583
     38          1           0       -2.078678    1.100647   -1.202616
     39          1           0       -1.073245   -2.139336    1.397822
     40          1           0       -4.429565    0.427687   -1.159301
     41          1           0       -3.443944   -2.850000    1.413878
     42          8           0       -5.369584   -1.734983    0.218075
     43          6           0       -6.368506   -1.037348   -0.492266
     44          1           0       -6.460713   -0.000869   -0.145468
     45          1           0       -6.173119   -1.041209   -1.571513
     46          1           0       -7.303574   -1.562500   -0.297656
 ---------------------------------------------------------------------

 SCF Done:  E(ULC-wHPBE) =  -1092.37030415     A.U. after   18 cycles

 The electronic state is 2-A.
 Alpha  occ. eigenvalues --  -19.00715 -19.00695 -19.00693 -14.30889 -10.17809
 Alpha  occ. eigenvalues --  -10.17786 -10.17773 -10.16466 -10.16465 -10.16455
 Alpha  occ. eigenvalues --  -10.13738 -10.13697 -10.13658 -10.12919 -10.12890
 Alpha  occ. eigenvalues --  -10.12878 -10.12561 -10.12537 -10.12510 -10.11704
 Alpha  occ. eigenvalues --  -10.11668 -10.11658 -10.11292 -10.11272 -10.11244
 Alpha  occ. eigenvalues --   -1.20706  -1.20679  -1.20667  -1.15759  -1.02859
 Alpha  occ. eigenvalues --   -1.02846  -1.00833  -0.93789  -0.93636  -0.92026
 Alpha  occ. eigenvalues --   -0.91872  -0.91585  -0.89783  -0.86304  -0.85823
 Alpha  occ. eigenvalues --   -0.83712  -0.80628  -0.79468  -0.78843  -0.77528
 Alpha  occ. eigenvalues --   -0.76754  -0.74508  -0.72606  -0.72576  -0.70206
 Alpha  occ. eigenvalues --   -0.69113  -0.69069  -0.67840  -0.65762  -0.65552
 Alpha  occ. eigenvalues --   -0.63164  -0.63141  -0.63093  -0.62452  -0.62402
 Alpha  occ. eigenvalues --   -0.62331  -0.60396  -0.60255  -0.60239  -0.59887
 Alpha  occ. eigenvalues --   -0.59512  -0.58204  -0.58179  -0.57224  -0.57050
 Alpha  occ. eigenvalues --   -0.56823  -0.56788  -0.56762  -0.54520  -0.53259
 Alpha  occ. eigenvalues --   -0.53208  -0.52446  -0.50756  -0.50648  -0.49549
 Alpha  occ. eigenvalues --   -0.49445  -0.49421  -0.46980  -0.45759  -0.44819
 Alpha  occ. eigenvalues --   -0.44629  -0.41631  -0.41493  -0.37506
 Alpha virt. eigenvalues --   -0.10353  -0.09075  -0.08967  -0.08124  -0.07976
 Alpha virt. eigenvalues --   -0.04725  -0.01041   0.00300   0.00425   0.01162
 Alpha virt. eigenvalues --    0.01358   0.01956   0.02866   0.02987   0.03353

  Beta  occ. eigenvalues --  -19.00606 -19.00582 -19.00576 -14.30118 -10.17685
  Beta  occ. eigenvalues --  -10.17659 -10.17643 -10.16487 -10.16485 -10.16475
  Beta  occ. eigenvalues --  -10.13743 -10.13702 -10.13663 -10.12791 -10.12760
  Beta  occ. eigenvalues --  -10.12746 -10.12464 -10.12440 -10.12411 -10.11733
  Beta  occ. eigenvalues --  -10.11700 -10.11687 -10.11324 -10.11302 -10.11277
  Beta  occ. eigenvalues --   -1.20520  -1.20488  -1.20469  -1.14787  -1.02660
  Beta  occ. eigenvalues --   -1.02641  -1.00553  -0.93586  -0.93434  -0.91904
  Beta  occ. eigenvalues --   -0.91745  -0.91458  -0.89461  -0.86239  -0.85766
  Beta  occ. eigenvalues --   -0.83469  -0.80417  -0.79277  -0.78660  -0.77328
  Beta  occ. eigenvalues --   -0.76598  -0.74378  -0.72469  -0.72435  -0.70103
  Beta  occ. eigenvalues --   -0.68983  -0.68929  -0.67348  -0.65667  -0.65448
  Beta  occ. eigenvalues --   -0.62905  -0.62876  -0.62822  -0.62340  -0.62295
  Beta  occ. eigenvalues --   -0.62238  -0.60298  -0.60177  -0.60166  -0.59398
  Beta  occ. eigenvalues --   -0.59334  -0.58149  -0.58129  -0.57060  -0.56826
  Beta  occ. eigenvalues --   -0.56536  -0.56526  -0.56487  -0.53974  -0.53150
  Beta  occ. eigenvalues --   -0.53106  -0.51951  -0.50183  -0.50068  -0.49433
  Beta  occ. eigenvalues --   -0.49359  -0.49333  -0.45506  -0.45168  -0.44543
  Beta  occ. eigenvalues --   -0.44320  -0.40287  -0.40073
  Beta virt. eigenvalues --   -0.22547  -0.09981  -0.08436  -0.08279  -0.07628
  Beta virt. eigenvalues --   -0.07423  -0.03585  -0.00968   0.00361   0.00480
  Beta virt. eigenvalues --    0.01224   0.01413   0.01993   0.02934   0.03033

 Mulliken charges and spin densities:
               1          2
     1  N    0.083297   0.335898
     2  C   -0.107006   0.005655
     3  C   -0.068885   0.086623
     4  C   -0.056284   0.062877
     5  C   -0.188901  -0.034023
     6  C   -0.198557  -0.033939
     7  C    0.157431   0.093156
     8  H    0.167465  -0.004052
     9  H    0.168551  -0.002782
    10  H    0.173194   0.001437
    11  H    0.152981   0.001677
    12  C   -0.099026   0.005010
    13  C   -0.079019   0.088751
    14  C   -0.052486   0.063349
    15  C   -0.188340  -0.036217
    16  C   -0.197953  -0.032307
    17  C    0.157465   0.095070
    18  H    0.167553  -0.004116
    19  H    0.170725  -0.002912
    20  H    0.173476   0.001460
    21  H    0.153226   0.001643
    22  O   -0.101423   0.037927
    23  C   -0.260225  -0.003493
    24  H    0.142743   0.003227
    25  H    0.145772   0.003215
    26  H    0.172359  -0.000095
    27  O   -0.101915   0.036778
    28  C   -0.260009  -0.003414
    29  H    0.143044   0.003125
    30  H    0.145044   0.003130
    31  H    0.172282  -0.000091
    32  C   -0.084978   0.004606
    33  C   -0.079421   0.090766
    34  C   -0.064808   0.065661
    35  C   -0.187371  -0.035172
    36  C   -0.196812  -0.034765
    37  C    0.157585   0.098238
    38  H    0.170497  -0.004343
    39  H    0.171172  -0.002976
    40  H    0.173477   0.001435
    41  H    0.153609   0.001662
    42  O   -0.100879   0.039376
    43  C   -0.260216  -0.003638
    44  H    0.143898   0.003331
    45  H    0.145254   0.003349
    46  H    0.172415  -0.000098
 Sum of Mulliken charges =   1.00000   1.00000

 Dipole moment (field-independent basis, Debye):
    X=              1.1098    Y=              1.2651    Z=             -0.7854  Tot=              1.8571
 Quadrupole moment (field-independent basis, Debye-Ang):
   XX=            -67.4594   YY=            -96.9320   ZZ=           -137.5228
   XY=             -0.3738   XZ=              6.6655   YZ=             -7.3139

 Normal termination of Gaussian 16 at Sun Jan 17 03:08:22 2021.
