 Gaussian 16, Revision A.03,
 Gaussian 16:  EM64L-G16RevA.03 25-Dec-2016

 ----------------------------------------------------------------------
 #P LC-wHPBE/TZVP iop(3/107=0328100000, 3/108=0328100000) scf=(conver=6
 ,fermi,ndamp=35,noincfock,novaracc,vshift=500,xqc)
 ----------------------------------------------------------------------

 -------------
 H21 C21 N1 O3
 -------------
 Symbolic Z-matrix:
 Charge =  1 Multiplicity = 2

                         Standard orientation:
 ---------------------------------------------------------------------
 Center     Atomic      Atomic             Coordinates (Angstroms)
 Number     Number       Type             X           Y           Z
 ---------------------------------------------------------------------
      1          7           0       -0.054086   -0.063852    0.077784
      2          6           0        0.275154    1.311734    0.103506
      3          6           0        1.260864    1.827996   -0.723750
      4          6           0       -0.386136    2.184815    0.970218
      5          6           0        1.598383    3.175646   -0.688444
      6          6           0       -0.074578    3.526309    0.994438
      7          6           0        0.925199    4.034430    0.167909
      8          1           0        1.784639    1.164376   -1.405148
      9          1           0       -1.158634    1.797039    1.627427
     10          1           0        2.379443    3.537518   -1.347421
     11          1           0       -0.588854    4.206820    1.665799
     12          6           0        0.970368   -1.034170   -0.019727
     13          6           0        2.134785   -0.917605    0.724871
     14          6           0        0.835798   -2.133662   -0.869883
     15          6           0        3.151989   -1.858173    0.623575
     16          6           0        1.829783   -3.083911   -0.958163
     17          6           0        3.000538   -2.952780   -0.215611
     18          1           0        2.255494   -0.070395    1.393250
     19          1           0       -0.067506   -2.240735   -1.462783
     20          1           0        4.048238   -1.726663    1.219136
     21          1           0        1.725248   -3.941045   -1.615932
     22          8           0        3.928452   -3.936732   -0.380204
     23          6           0        5.121819   -3.840278    0.365278
     24          1           0        5.681123   -2.930405    0.115451
     25          1           0        4.925954   -3.859222    1.444250
     26          1           0        5.719913   -4.710923    0.096466
     27          8           0        1.168219    5.370782    0.273837
     28          6           0        2.170457    5.919716   -0.552884
     29          1           0        3.151069    5.472721   -0.348812
     30          1           0        1.930215    5.794071   -1.615623
     31          1           0        2.208574    6.983731   -0.319613
     32          6           0       -1.409258   -0.466483    0.091838
     33          6           0       -2.372325    0.232607   -0.620224
     34          6           0       -1.812213   -1.581496    0.830640
     35          6           0       -3.707828   -0.150755   -0.593850
     36          6           0       -3.129962   -1.982236    0.842322
     37          6           0       -4.092694   -1.267170    0.133583
     38          1           0       -2.078678    1.100647   -1.202616
     39          1           0       -1.073245   -2.139336    1.397822
     40          1           0       -4.429565    0.427687   -1.159301
     41          1           0       -3.443944   -2.850000    1.413878
     42          8           0       -5.369584   -1.734983    0.218075
     43          6           0       -6.368506   -1.037348   -0.492266
     44          1           0       -6.460713   -0.000869   -0.145468
     45          1           0       -6.173119   -1.041209   -1.571513
     46          1           0       -7.303574   -1.562500   -0.297656
 ---------------------------------------------------------------------

 SCF Done:  E(ULC-wHPBE) =  -1092.54437880     A.U. after   19 cycles

 The electronic state is 2-A.
 Alpha  occ. eigenvalues --  -19.07996 -19.07972 -19.07970 -14.40015 -10.26327
 Alpha  occ. eigenvalues --  -10.26304 -10.26299 -10.24889 -10.24879 -10.24869
 Alpha  occ. eigenvalues --  -10.21687 -10.21642 -10.21603 -10.21434 -10.21402
 Alpha  occ. eigenvalues --  -10.21398 -10.21028 -10.21005 -10.20980 -10.19839
 Alpha  occ. eigenvalues --  -10.19802 -10.19793 -10.19405 -10.19381 -10.19358
 Alpha  occ. eigenvalues --   -1.28595  -1.28564  -1.28554  -1.24865  -1.11450
 Alpha  occ. eigenvalues --   -1.11441  -1.09245  -1.01718  -1.01544  -0.99984
 Alpha  occ. eigenvalues --   -0.99817  -0.99511  -0.97332  -0.93544  -0.93024
 Alpha  occ. eigenvalues --   -0.90920  -0.87719  -0.86471  -0.85846  -0.84352
 Alpha  occ. eigenvalues --   -0.83506  -0.81137  -0.79077  -0.79021  -0.76125
 Alpha  occ. eigenvalues --   -0.74883  -0.74854  -0.74242  -0.71619  -0.71469
 Alpha  occ. eigenvalues --   -0.69196  -0.69173  -0.69114  -0.68247  -0.68194
 Alpha  occ. eigenvalues --   -0.68104  -0.66150  -0.65866  -0.65854  -0.65656
 Alpha  occ. eigenvalues --   -0.64758  -0.63527  -0.63482  -0.62700  -0.62621
 Alpha  occ. eigenvalues --   -0.62253  -0.62176  -0.61965  -0.59854  -0.58289
 Alpha  occ. eigenvalues --   -0.58220  -0.57528  -0.55586  -0.55477  -0.54430
 Alpha  occ. eigenvalues --   -0.54304  -0.54278  -0.51914  -0.49508  -0.48498
 Alpha  occ. eigenvalues --   -0.48297  -0.45158  -0.45006  -0.40928
 Alpha virt. eigenvalues --   -0.08234  -0.06959  -0.06857  -0.05766  -0.05617
 Alpha virt. eigenvalues --   -0.02340   0.01148   0.02699   0.02836   0.03387
 Alpha virt. eigenvalues --    0.03588   0.04206   0.05204   0.05520   0.05757

  Beta  occ. eigenvalues --  -19.07891 -19.07863 -19.07857 -14.39087 -10.26163
  Beta  occ. eigenvalues --  -10.26136 -10.26125 -10.24970 -10.24958 -10.24948
  Beta  occ. eigenvalues --  -10.21692 -10.21647 -10.21608 -10.21262 -10.21227
  Beta  occ. eigenvalues --  -10.21220 -10.20890 -10.20866 -10.20838 -10.19913
  Beta  occ. eigenvalues --  -10.19879 -10.19870 -10.19483 -10.19458 -10.19438
  Beta  occ. eigenvalues --   -1.28403  -1.28367  -1.28348  -1.23695  -1.11225
  Beta  occ. eigenvalues --   -1.11208  -1.08878  -1.01500  -1.01329  -0.99857
  Beta  occ. eigenvalues --   -0.99682  -0.99377  -0.96842  -0.93493  -0.92987
  Beta  occ. eigenvalues --   -0.90602  -0.87464  -0.86232  -0.85634  -0.84096
  Beta  occ. eigenvalues --   -0.83313  -0.80998  -0.78930  -0.78868  -0.75990
  Beta  occ. eigenvalues --   -0.74722  -0.74701  -0.73440  -0.71513  -0.71353
  Beta  occ. eigenvalues --   -0.68838  -0.68804  -0.68743  -0.68112  -0.68066
  Beta  occ. eigenvalues --   -0.67999  -0.65945  -0.65772  -0.65747  -0.64857
  Beta  occ. eigenvalues --   -0.64619  -0.63473  -0.63429  -0.62306  -0.62069
  Beta  occ. eigenvalues --   -0.61903  -0.61859  -0.61762  -0.58915  -0.58157
  Beta  occ. eigenvalues --   -0.58098  -0.56787  -0.54688  -0.54560  -0.54288
  Beta  occ. eigenvalues --   -0.54216  -0.54190  -0.49228  -0.48958  -0.48239
  Beta  occ. eigenvalues --   -0.48015  -0.43443  -0.43186
  Beta virt. eigenvalues --   -0.21554  -0.07751  -0.06149  -0.06005  -0.04975
  Beta virt. eigenvalues --   -0.04761  -0.00494   0.01216   0.02761   0.02884
  Beta virt. eigenvalues --    0.03459   0.03646   0.04236   0.05247   0.05570

 Mulliken charges and spin densities:
               1          2
     1  N    0.072500   0.408478
     2  C   -0.133589  -0.039141
     3  C   -0.073068   0.125376
     4  C   -0.064604   0.098895
     5  C   -0.207568  -0.078971
     6  C   -0.210646  -0.077505
     7  C    0.155031   0.131570
     8  H    0.192974  -0.005454
     9  H    0.194500  -0.004035
    10  H    0.194490   0.003108
    11  H    0.175288   0.003359
    12  C   -0.124904  -0.040086
    13  C   -0.082337   0.128490
    14  C   -0.061448   0.099692
    15  C   -0.207216  -0.081968
    16  C   -0.209758  -0.076636
    17  C    0.155100   0.134354
    18  H    0.193093  -0.005554
    19  H    0.196407  -0.004189
    20  H    0.194731   0.003155
    21  H    0.175519   0.003358
    22  O   -0.117241   0.033482
    23  C   -0.262627  -0.003487
    24  H    0.141341   0.002832
    25  H    0.144311   0.002817
    26  H    0.173358  -0.000075
    27  O   -0.117713   0.032440
    28  C   -0.262407  -0.003402
    29  H    0.141664   0.002742
    30  H    0.143584   0.002743
    31  H    0.173297  -0.000073
    32  C   -0.110287  -0.040925
    33  C   -0.083220   0.131437
    34  C   -0.072907   0.103364
    35  C   -0.206017  -0.082323
    36  C   -0.208800  -0.080309
    37  C    0.155356   0.138933
    38  H    0.195872  -0.005831
    39  H    0.196961  -0.004307
    40  H    0.194731   0.003187
    41  H    0.175877   0.003419
    42  O   -0.116691   0.034888
    43  C   -0.262690  -0.003645
    44  H    0.142510   0.002932
    45  H    0.143790   0.002940
    46  H    0.173452  -0.000078
 Sum of Mulliken charges =   1.00000   1.00000

 Dipole moment (field-independent basis, Debye):
    X=              1.1471    Y=              1.3109    Z=             -0.8061  Tot=              1.9195
 Quadrupole moment (field-independent basis, Debye-Ang):
   XX=            -68.5526   YY=            -98.7470   ZZ=           -136.8199
   XY=             -0.3824   XZ=              6.9641   YZ=             -7.6454

 Normal termination of Gaussian 16 at Sun Jan 17 00:22:20 2021.
