 Gaussian 16, Revision A.03,
 Gaussian 16:  EM64L-G16RevA.03 25-Dec-2016

 ----------------------------------------------------------------------
 #P LC-wHPBE/TZVP iop(3/107=0189400000, 3/108=0189400000) scf=(conver=6
 ,fermi,ndamp=35,noincfock,novaracc,vshift=500,xqc)
 ----------------------------------------------------------------------

 -------------
 H21 C21 N1 O3
 -------------
 Symbolic Z-matrix:
 Charge =  0 Multiplicity = 1

                         Standard orientation:
 ---------------------------------------------------------------------
 Center     Atomic      Atomic             Coordinates (Angstroms)
 Number     Number       Type             X           Y           Z
 ---------------------------------------------------------------------
      1          7           0       -0.054086   -0.063852    0.077784
      2          6           0        0.275154    1.311734    0.103506
      3          6           0        1.260864    1.827996   -0.723750
      4          6           0       -0.386136    2.184815    0.970218
      5          6           0        1.598383    3.175646   -0.688444
      6          6           0       -0.074578    3.526309    0.994438
      7          6           0        0.925199    4.034430    0.167909
      8          1           0        1.784639    1.164376   -1.405148
      9          1           0       -1.158634    1.797039    1.627427
     10          1           0        2.379443    3.537518   -1.347421
     11          1           0       -0.588854    4.206820    1.665799
     12          6           0        0.970368   -1.034170   -0.019727
     13          6           0        2.134785   -0.917605    0.724871
     14          6           0        0.835798   -2.133662   -0.869883
     15          6           0        3.151989   -1.858173    0.623575
     16          6           0        1.829783   -3.083911   -0.958163
     17          6           0        3.000538   -2.952780   -0.215611
     18          1           0        2.255494   -0.070395    1.393250
     19          1           0       -0.067506   -2.240735   -1.462783
     20          1           0        4.048238   -1.726663    1.219136
     21          1           0        1.725248   -3.941045   -1.615932
     22          8           0        3.928452   -3.936732   -0.380204
     23          6           0        5.121819   -3.840278    0.365278
     24          1           0        5.681123   -2.930405    0.115451
     25          1           0        4.925954   -3.859222    1.444250
     26          1           0        5.719913   -4.710923    0.096466
     27          8           0        1.168219    5.370782    0.273837
     28          6           0        2.170457    5.919716   -0.552884
     29          1           0        3.151069    5.472721   -0.348812
     30          1           0        1.930215    5.794071   -1.615623
     31          1           0        2.208574    6.983731   -0.319613
     32          6           0       -1.409258   -0.466483    0.091838
     33          6           0       -2.372325    0.232607   -0.620224
     34          6           0       -1.812213   -1.581496    0.830640
     35          6           0       -3.707828   -0.150755   -0.593850
     36          6           0       -3.129962   -1.982236    0.842322
     37          6           0       -4.092694   -1.267170    0.133583
     38          1           0       -2.078678    1.100647   -1.202616
     39          1           0       -1.073245   -2.139336    1.397822
     40          1           0       -4.429565    0.427687   -1.159301
     41          1           0       -3.443944   -2.850000    1.413878
     42          8           0       -5.369584   -1.734983    0.218075
     43          6           0       -6.368506   -1.037348   -0.492266
     44          1           0       -6.460713   -0.000869   -0.145468
     45          1           0       -6.173119   -1.041209   -1.571513
     46          1           0       -7.303574   -1.562500   -0.297656
 ---------------------------------------------------------------------

 SCF Done:  E(RLC-wHPBE) =  -1092.60239236     A.U. after   14 cycles

 The electronic state is 1-A.
 Alpha  occ. eigenvalues --  -18.88694 -18.88627 -18.88543 -14.11338 -10.04440
 Alpha  occ. eigenvalues --  -10.04374 -10.04282 -10.04118 -10.04058 -10.03974
 Alpha  occ. eigenvalues --  -10.02233 -10.02203 -10.02170  -9.99020  -9.98976
 Alpha  occ. eigenvalues --   -9.98892  -9.98878  -9.98852  -9.98834  -9.98795
 Alpha  occ. eigenvalues --   -9.98754  -9.98731  -9.98628  -9.98565  -9.98503
 Alpha  occ. eigenvalues --   -1.08987  -1.08920  -1.08835  -0.99092  -0.89300
 Alpha  occ. eigenvalues --   -0.89231  -0.87351  -0.80553  -0.80383  -0.79122
 Alpha  occ. eigenvalues --   -0.78920  -0.78443  -0.77436  -0.74579  -0.74192
 Alpha  occ. eigenvalues --   -0.71404  -0.67181  -0.66433  -0.65733  -0.64471
 Alpha  occ. eigenvalues --   -0.64079  -0.61690  -0.59514  -0.59452  -0.58621
 Alpha  occ. eigenvalues --   -0.56826  -0.56605  -0.54424  -0.53098  -0.52870
 Alpha  occ. eigenvalues --   -0.52265  -0.52202  -0.52117  -0.49875  -0.49841
 Alpha  occ. eigenvalues --   -0.49691  -0.47890  -0.47762  -0.47593  -0.47409
 Alpha  occ. eigenvalues --   -0.46658  -0.46542  -0.46463  -0.44441  -0.44300
 Alpha  occ. eigenvalues --   -0.44110  -0.43926  -0.43554  -0.41808  -0.41015
 Alpha  occ. eigenvalues --   -0.40828  -0.39442  -0.38401  -0.38249  -0.37901
 Alpha  occ. eigenvalues --   -0.37708  -0.37618  -0.33298  -0.32557  -0.31704
 Alpha  occ. eigenvalues --   -0.31476  -0.28816  -0.28607  -0.22558
 Alpha virt. eigenvalues --    0.02881   0.04657   0.04776   0.05228   0.05415
 Alpha virt. eigenvalues --    0.09382   0.10016   0.10424   0.10469   0.12180
 Alpha virt. eigenvalues --    0.12257   0.12359   0.13493   0.14132   0.14319

 Mulliken charges:
               1
     1  N   -0.006692
     2  C   -0.088724
     3  C   -0.095515
     4  C   -0.073031
     5  C   -0.201127
     6  C   -0.212539
     7  C    0.136149
     8  H    0.137128
     9  H    0.137336
    10  H    0.135716
    11  H    0.109140
    12  C   -0.082834
    13  C   -0.106079
    14  C   -0.070632
    15  C   -0.200244
    16  C   -0.212431
    17  C    0.135650
    18  H    0.136414
    19  H    0.140773
    20  H    0.135817
    21  H    0.109263
    22  O   -0.135852
    23  C   -0.242821
    24  H    0.124400
    25  H    0.126335
    26  H    0.144355
    27  O   -0.135961
    28  C   -0.242715
    29  H    0.124838
    30  H    0.125968
    31  H    0.144377
    32  C   -0.070588
    33  C   -0.108405
    34  C   -0.083589
    35  C   -0.200162
    36  C   -0.211183
    37  C    0.135366
    38  H    0.140515
    39  H    0.140295
    40  H    0.135626
    41  H    0.109285
    42  O   -0.136027
    43  C   -0.242592
    44  H    0.125139
    45  H    0.125696
    46  H    0.144163
 Sum of Mulliken charges =  -0.00000

 Dipole moment (field-independent basis, Debye):
    X=              1.2126    Y=              1.3436    Z=             -0.7941  Tot=              1.9764
 Quadrupole moment (field-independent basis, Debye-Ang):
   XX=           -118.8865   YY=           -142.6733   ZZ=           -145.8817
   XY=             -0.4000   XZ=              6.6401   YZ=             -7.2973

 Normal termination of Gaussian 16 at Sun Jan 17 03:46:50 2021.
