 Gaussian 16, Revision A.03,
 Gaussian 16:  EM64L-G16RevA.03 25-Dec-2016

 ----------------------------------------------------------------------
 #P LC-wHPBE/TZVP iop(3/107=0177800000, 3/108=0177800000) scf=(conver=6
 ,fermi,ndamp=35,noincfock,novaracc,vshift=500,xqc)
 ----------------------------------------------------------------------

 -------------
 H21 C21 N1 O3
 -------------
 Symbolic Z-matrix:
 Charge =  1 Multiplicity = 2

                         Standard orientation:
 ---------------------------------------------------------------------
 Center     Atomic      Atomic             Coordinates (Angstroms)
 Number     Number       Type             X           Y           Z
 ---------------------------------------------------------------------
      1          7           0       -0.054086   -0.063852    0.077784
      2          6           0        0.275154    1.311734    0.103506
      3          6           0        1.260864    1.827996   -0.723750
      4          6           0       -0.386136    2.184815    0.970218
      5          6           0        1.598383    3.175646   -0.688444
      6          6           0       -0.074578    3.526309    0.994438
      7          6           0        0.925199    4.034430    0.167909
      8          1           0        1.784639    1.164376   -1.405148
      9          1           0       -1.158634    1.797039    1.627427
     10          1           0        2.379443    3.537518   -1.347421
     11          1           0       -0.588854    4.206820    1.665799
     12          6           0        0.970368   -1.034170   -0.019727
     13          6           0        2.134785   -0.917605    0.724871
     14          6           0        0.835798   -2.133662   -0.869883
     15          6           0        3.151989   -1.858173    0.623575
     16          6           0        1.829783   -3.083911   -0.958163
     17          6           0        3.000538   -2.952780   -0.215611
     18          1           0        2.255494   -0.070395    1.393250
     19          1           0       -0.067506   -2.240735   -1.462783
     20          1           0        4.048238   -1.726663    1.219136
     21          1           0        1.725248   -3.941045   -1.615932
     22          8           0        3.928452   -3.936732   -0.380204
     23          6           0        5.121819   -3.840278    0.365278
     24          1           0        5.681123   -2.930405    0.115451
     25          1           0        4.925954   -3.859222    1.444250
     26          1           0        5.719913   -4.710923    0.096466
     27          8           0        1.168219    5.370782    0.273837
     28          6           0        2.170457    5.919716   -0.552884
     29          1           0        3.151069    5.472721   -0.348812
     30          1           0        1.930215    5.794071   -1.615623
     31          1           0        2.208574    6.983731   -0.319613
     32          6           0       -1.409258   -0.466483    0.091838
     33          6           0       -2.372325    0.232607   -0.620224
     34          6           0       -1.812213   -1.581496    0.830640
     35          6           0       -3.707828   -0.150755   -0.593850
     36          6           0       -3.129962   -1.982236    0.842322
     37          6           0       -4.092694   -1.267170    0.133583
     38          1           0       -2.078678    1.100647   -1.202616
     39          1           0       -1.073245   -2.139336    1.397822
     40          1           0       -4.429565    0.427687   -1.159301
     41          1           0       -3.443944   -2.850000    1.413878
     42          8           0       -5.369584   -1.734983    0.218075
     43          6           0       -6.368506   -1.037348   -0.492266
     44          1           0       -6.460713   -0.000869   -0.145468
     45          1           0       -6.173119   -1.041209   -1.571513
     46          1           0       -7.303574   -1.562500   -0.297656
 ---------------------------------------------------------------------

 SCF Done:  E(ULC-wHPBE) =  -1092.36061160     A.U. after   18 cycles

 The electronic state is 2-A.
 Alpha  occ. eigenvalues --  -19.00360 -19.00340 -19.00337 -14.30434 -10.17400
 Alpha  occ. eigenvalues --  -10.17377 -10.17364 -10.16059 -10.16058 -10.16048
 Alpha  occ. eigenvalues --  -10.13357 -10.13315 -10.13276 -10.12506 -10.12477
 Alpha  occ. eigenvalues --  -10.12464 -10.12151 -10.12127 -10.12099 -10.11311
 Alpha  occ. eigenvalues --  -10.11276 -10.11265 -10.10901 -10.10881 -10.10853
 Alpha  occ. eigenvalues --   -1.20321  -1.20294  -1.20281  -1.15306  -1.02432
 Alpha  occ. eigenvalues --   -1.02420  -1.00412  -0.93382  -0.93229  -0.91619
 Alpha  occ. eigenvalues --   -0.91465  -0.91178  -0.89390  -0.85922  -0.85443
 Alpha  occ. eigenvalues --   -0.83330  -0.80246  -0.79091  -0.78466  -0.77157
 Alpha  occ. eigenvalues --   -0.76386  -0.74143  -0.72242  -0.72214  -0.69872
 Alpha  occ. eigenvalues --   -0.68788  -0.68741  -0.67481  -0.65429  -0.65217
 Alpha  occ. eigenvalues --   -0.62826  -0.62803  -0.62757  -0.62119  -0.62069
 Alpha  occ. eigenvalues --   -0.62000  -0.60068  -0.59932  -0.59916  -0.59557
 Alpha  occ. eigenvalues --   -0.59207  -0.57900  -0.57872  -0.56912  -0.56729
 Alpha  occ. eigenvalues --   -0.56498  -0.56470  -0.56445  -0.54207  -0.52964
 Alpha  occ. eigenvalues --   -0.52914  -0.52144  -0.50463  -0.50356  -0.49264
 Alpha  occ. eigenvalues --   -0.49161  -0.49137  -0.46685  -0.45507  -0.44572
 Alpha  occ. eigenvalues --   -0.44383  -0.41402  -0.41265  -0.37286
 Alpha virt. eigenvalues --   -0.10523  -0.09242  -0.09133  -0.08308  -0.08160
 Alpha virt. eigenvalues --   -0.04909  -0.01214   0.00116   0.00241   0.00985
 Alpha virt. eigenvalues --    0.01181   0.01779   0.02663   0.02806   0.03175

  Beta  occ. eigenvalues --  -19.00250 -19.00227 -19.00219 -14.29672 -10.17278
  Beta  occ. eigenvalues --  -10.17252 -10.17235 -10.16077 -10.16076 -10.16066
  Beta  occ. eigenvalues --  -10.13361 -10.13320 -10.13281 -10.12380 -10.12349
  Beta  occ. eigenvalues --  -10.12334 -10.12055 -10.12031 -10.12002 -10.11339
  Beta  occ. eigenvalues --  -10.11306 -10.11293 -10.10930 -10.10909 -10.10883
  Beta  occ. eigenvalues --   -1.20134  -1.20102  -1.20082  -1.14344  -1.02234
  Beta  occ. eigenvalues --   -1.02215  -1.00135  -0.93179  -0.93027  -0.91497
  Beta  occ. eigenvalues --   -0.91338  -0.91051  -0.89074  -0.85856  -0.85385
  Beta  occ. eigenvalues --   -0.83091  -0.80037  -0.78901  -0.78283  -0.76959
  Beta  occ. eigenvalues --   -0.76232  -0.74013  -0.72105  -0.72073  -0.69770
  Beta  occ. eigenvalues --   -0.68659  -0.68602  -0.67000  -0.65334  -0.65113
  Beta  occ. eigenvalues --   -0.62569  -0.62540  -0.62487  -0.62009  -0.61963
  Beta  occ. eigenvalues --   -0.61907  -0.59973  -0.59856  -0.59845  -0.59094
  Beta  occ. eigenvalues --   -0.59013  -0.57845  -0.57823  -0.56754  -0.56522
  Beta  occ. eigenvalues --   -0.56212  -0.56204  -0.56165  -0.53680  -0.52856
  Beta  occ. eigenvalues --   -0.52814  -0.51655  -0.49907  -0.49794  -0.49149
  Beta  occ. eigenvalues --   -0.49075  -0.49049  -0.45256  -0.44933  -0.44296
  Beta  occ. eigenvalues --   -0.44076  -0.40089  -0.39878
  Beta virt. eigenvalues --   -0.22623  -0.10157  -0.08611  -0.08453  -0.07825
  Beta virt. eigenvalues --   -0.07619  -0.03806  -0.01140   0.00177   0.00295
  Beta virt. eigenvalues --    0.01047   0.01236   0.01817   0.02734   0.02850

 Mulliken charges and spin densities:
               1          2
     1  N    0.083527   0.331600
     2  C   -0.106157   0.007496
     3  C   -0.069053   0.085106
     4  C   -0.056468   0.061475
     5  C   -0.187837  -0.032267
     6  C   -0.197660  -0.032274
     7  C    0.157524   0.091837
     8  H    0.166586  -0.003995
     9  H    0.167645  -0.002731
    10  H    0.172430   0.001371
    11  H    0.152306   0.001610
    12  C   -0.098178   0.006861
    13  C   -0.079233   0.087196
    14  C   -0.052624   0.061928
    15  C   -0.187287  -0.034441
    16  C   -0.197060  -0.030598
    17  C    0.157551   0.093716
    18  H    0.166682  -0.004057
    19  H    0.169819  -0.002859
    20  H    0.172713   0.001393
    21  H    0.152551   0.001574
    22  O   -0.101060   0.038320
    23  C   -0.260729  -0.003501
    24  H    0.143040   0.003266
    25  H    0.146074   0.003255
    26  H    0.172513  -0.000097
    27  O   -0.101554   0.037163
    28  C   -0.260512  -0.003423
    29  H    0.143340   0.003163
    30  H    0.145346   0.003169
    31  H    0.172436  -0.000093
    32  C   -0.084145   0.006466
    33  C   -0.079580   0.089168
    34  C   -0.064980   0.064188
    35  C   -0.186327  -0.033328
    36  C   -0.195938  -0.033022
    37  C    0.157669   0.096825
    38  H    0.169622  -0.004282
    39  H    0.170269  -0.002921
    40  H    0.172715   0.001365
    41  H    0.152934   0.001591
    42  O   -0.100513   0.039772
    43  C   -0.260717  -0.003646
    44  H    0.144195   0.003370
    45  H    0.145556   0.003390
    46  H    0.172568  -0.000100
 Sum of Mulliken charges =   1.00000   1.00000

 Dipole moment (field-independent basis, Debye):
    X=              1.1087    Y=              1.2635    Z=             -0.7850  Tot=              1.8552
 Quadrupole moment (field-independent basis, Debye-Ang):
   XX=            -67.3726   YY=            -96.8239   ZZ=           -137.5569
   XY=             -0.3737   XZ=              6.6540   YZ=             -7.3011

 Normal termination of Gaussian 16 at Sun Jan 17 02:12:52 2021.
