 Gaussian 16, Revision A.03,
 Gaussian 16:  EM64L-G16RevA.03 25-Dec-2016

 ----------------------------------------------------------------------
 #P LC-wHPBE/TZVP iop(3/107=0191100000, 3/108=0191100000) scf=(conver=6
 ,fermi,ndamp=35,noincfock,novaracc,vshift=500,xqc)
 ----------------------------------------------------------------------

 -------------
 H21 C21 N1 O3
 -------------
 Symbolic Z-matrix:
 Charge =  0 Multiplicity = 1

                         Standard orientation:
 ---------------------------------------------------------------------
 Center     Atomic      Atomic             Coordinates (Angstroms)
 Number     Number       Type             X           Y           Z
 ---------------------------------------------------------------------
      1          7           0       -0.054086   -0.063852    0.077784
      2          6           0        0.275154    1.311734    0.103506
      3          6           0        1.260864    1.827996   -0.723750
      4          6           0       -0.386136    2.184815    0.970218
      5          6           0        1.598383    3.175646   -0.688444
      6          6           0       -0.074578    3.526309    0.994438
      7          6           0        0.925199    4.034430    0.167909
      8          1           0        1.784639    1.164376   -1.405148
      9          1           0       -1.158634    1.797039    1.627427
     10          1           0        2.379443    3.537518   -1.347421
     11          1           0       -0.588854    4.206820    1.665799
     12          6           0        0.970368   -1.034170   -0.019727
     13          6           0        2.134785   -0.917605    0.724871
     14          6           0        0.835798   -2.133662   -0.869883
     15          6           0        3.151989   -1.858173    0.623575
     16          6           0        1.829783   -3.083911   -0.958163
     17          6           0        3.000538   -2.952780   -0.215611
     18          1           0        2.255494   -0.070395    1.393250
     19          1           0       -0.067506   -2.240735   -1.462783
     20          1           0        4.048238   -1.726663    1.219136
     21          1           0        1.725248   -3.941045   -1.615932
     22          8           0        3.928452   -3.936732   -0.380204
     23          6           0        5.121819   -3.840278    0.365278
     24          1           0        5.681123   -2.930405    0.115451
     25          1           0        4.925954   -3.859222    1.444250
     26          1           0        5.719913   -4.710923    0.096466
     27          8           0        1.168219    5.370782    0.273837
     28          6           0        2.170457    5.919716   -0.552884
     29          1           0        3.151069    5.472721   -0.348812
     30          1           0        1.930215    5.794071   -1.615623
     31          1           0        2.208574    6.983731   -0.319613
     32          6           0       -1.409258   -0.466483    0.091838
     33          6           0       -2.372325    0.232607   -0.620224
     34          6           0       -1.812213   -1.581496    0.830640
     35          6           0       -3.707828   -0.150755   -0.593850
     36          6           0       -3.129962   -1.982236    0.842322
     37          6           0       -4.092694   -1.267170    0.133583
     38          1           0       -2.078678    1.100647   -1.202616
     39          1           0       -1.073245   -2.139336    1.397822
     40          1           0       -4.429565    0.427687   -1.159301
     41          1           0       -3.443944   -2.850000    1.413878
     42          8           0       -5.369584   -1.734983    0.218075
     43          6           0       -6.368506   -1.037348   -0.492266
     44          1           0       -6.460713   -0.000869   -0.145468
     45          1           0       -6.173119   -1.041209   -1.571513
     46          1           0       -7.303574   -1.562500   -0.297656
 ---------------------------------------------------------------------

 SCF Done:  E(RLC-wHPBE) =  -1092.60491336     A.U. after   14 cycles

 The electronic state is 1-A.
 Alpha  occ. eigenvalues --  -18.88783 -18.88716 -18.88632 -14.11428 -10.04538
 Alpha  occ. eigenvalues --  -10.04473 -10.04380 -10.04213 -10.04154 -10.04069
 Alpha  occ. eigenvalues --  -10.02330 -10.02300 -10.02267  -9.99116  -9.99072
 Alpha  occ. eigenvalues --   -9.98988  -9.98975  -9.98948  -9.98931  -9.98892
 Alpha  occ. eigenvalues --   -9.98851  -9.98828  -9.98724  -9.98661  -9.98599
 Alpha  occ. eigenvalues --   -1.09083  -1.09016  -1.08931  -0.99192  -0.89402
 Alpha  occ. eigenvalues --   -0.89333  -0.87452  -0.80650  -0.80479  -0.79220
 Alpha  occ. eigenvalues --   -0.79018  -0.78540  -0.77530  -0.74672  -0.74285
 Alpha  occ. eigenvalues --   -0.71496  -0.67271  -0.66522  -0.65822  -0.64558
 Alpha  occ. eigenvalues --   -0.64166  -0.61776  -0.59598  -0.59537  -0.58701
 Alpha  occ. eigenvalues --   -0.56903  -0.56683  -0.54506  -0.53176  -0.52949
 Alpha  occ. eigenvalues --   -0.52346  -0.52284  -0.52199  -0.49954  -0.49919
 Alpha  occ. eigenvalues --   -0.49769  -0.47965  -0.47838  -0.47669  -0.47485
 Alpha  occ. eigenvalues --   -0.46731  -0.46616  -0.46536  -0.44518  -0.44379
 Alpha  occ. eigenvalues --   -0.44188  -0.43997  -0.43623  -0.41879  -0.41085
 Alpha  occ. eigenvalues --   -0.40897  -0.39513  -0.38471  -0.38320  -0.37969
 Alpha  occ. eigenvalues --   -0.37776  -0.37685  -0.33364  -0.32614  -0.31761
 Alpha  occ. eigenvalues --   -0.31533  -0.28869  -0.28660  -0.22602
 Alpha virt. eigenvalues --    0.02922   0.04697   0.04816   0.05272   0.05459
 Alpha virt. eigenvalues --    0.09428   0.10056   0.10465   0.10510   0.12223
 Alpha virt. eigenvalues --    0.12301   0.12404   0.13541   0.14174   0.14363

 Mulliken charges:
               1
     1  N   -0.007214
     2  C   -0.088829
     3  C   -0.095554
     4  C   -0.073043
     5  C   -0.201316
     6  C   -0.212720
     7  C    0.136046
     8  H    0.137355
     9  H    0.137574
    10  H    0.135923
    11  H    0.109344
    12  C   -0.082941
    13  C   -0.106110
    14  C   -0.070657
    15  C   -0.200430
    16  C   -0.212609
    17  C    0.135547
    18  H    0.136640
    19  H    0.141010
    20  H    0.136024
    21  H    0.109466
    22  O   -0.135915
    23  C   -0.242703
    24  H    0.124352
    25  H    0.126286
    26  H    0.144326
    27  O   -0.136024
    28  C   -0.242597
    29  H    0.124791
    30  H    0.125919
    31  H    0.144349
    32  C   -0.070694
    33  C   -0.108451
    34  C   -0.083609
    35  C   -0.200343
    36  C   -0.211356
    37  C    0.135260
    38  H    0.140741
    39  H    0.140532
    40  H    0.135833
    41  H    0.109488
    42  O   -0.136091
    43  C   -0.242474
    44  H    0.125092
    45  H    0.125647
    46  H    0.144135
 Sum of Mulliken charges =  -0.00000

 Dipole moment (field-independent basis, Debye):
    X=              1.2133    Y=              1.3444    Z=             -0.7945  Tot=              1.9776
 Quadrupole moment (field-independent basis, Debye-Ang):
   XX=           -118.8787   YY=           -142.6779   ZZ=           -145.8712
   XY=             -0.4002   XZ=              6.6441   YZ=             -7.3018

 Normal termination of Gaussian 16 at Sun Jan 17 01:27:50 2021.
