 Gaussian 16, Revision A.03,
 Gaussian 16:  EM64L-G16RevA.03 25-Dec-2016

 ----------------------------------------------------------------------
 #P LC-wHPBE/TZVP iop(3/107=0189000000, 3/108=0189000000) scf=(conver=6
 ,fermi,ndamp=35,noincfock,novaracc,vshift=500,xqc)
 ----------------------------------------------------------------------

 -------------
 H21 C21 N1 O3
 -------------
 Symbolic Z-matrix:
 Charge =  0 Multiplicity = 1

                         Standard orientation:
 ---------------------------------------------------------------------
 Center     Atomic      Atomic             Coordinates (Angstroms)
 Number     Number       Type             X           Y           Z
 ---------------------------------------------------------------------
      1          7           0       -0.054086   -0.063852    0.077784
      2          6           0        0.275154    1.311734    0.103506
      3          6           0        1.260864    1.827996   -0.723750
      4          6           0       -0.386136    2.184815    0.970218
      5          6           0        1.598383    3.175646   -0.688444
      6          6           0       -0.074578    3.526309    0.994438
      7          6           0        0.925199    4.034430    0.167909
      8          1           0        1.784639    1.164376   -1.405148
      9          1           0       -1.158634    1.797039    1.627427
     10          1           0        2.379443    3.537518   -1.347421
     11          1           0       -0.588854    4.206820    1.665799
     12          6           0        0.970368   -1.034170   -0.019727
     13          6           0        2.134785   -0.917605    0.724871
     14          6           0        0.835798   -2.133662   -0.869883
     15          6           0        3.151989   -1.858173    0.623575
     16          6           0        1.829783   -3.083911   -0.958163
     17          6           0        3.000538   -2.952780   -0.215611
     18          1           0        2.255494   -0.070395    1.393250
     19          1           0       -0.067506   -2.240735   -1.462783
     20          1           0        4.048238   -1.726663    1.219136
     21          1           0        1.725248   -3.941045   -1.615932
     22          8           0        3.928452   -3.936732   -0.380204
     23          6           0        5.121819   -3.840278    0.365278
     24          1           0        5.681123   -2.930405    0.115451
     25          1           0        4.925954   -3.859222    1.444250
     26          1           0        5.719913   -4.710923    0.096466
     27          8           0        1.168219    5.370782    0.273837
     28          6           0        2.170457    5.919716   -0.552884
     29          1           0        3.151069    5.472721   -0.348812
     30          1           0        1.930215    5.794071   -1.615623
     31          1           0        2.208574    6.983731   -0.319613
     32          6           0       -1.409258   -0.466483    0.091838
     33          6           0       -2.372325    0.232607   -0.620224
     34          6           0       -1.812213   -1.581496    0.830640
     35          6           0       -3.707828   -0.150755   -0.593850
     36          6           0       -3.129962   -1.982236    0.842322
     37          6           0       -4.092694   -1.267170    0.133583
     38          1           0       -2.078678    1.100647   -1.202616
     39          1           0       -1.073245   -2.139336    1.397822
     40          1           0       -4.429565    0.427687   -1.159301
     41          1           0       -3.443944   -2.850000    1.413878
     42          8           0       -5.369584   -1.734983    0.218075
     43          6           0       -6.368506   -1.037348   -0.492266
     44          1           0       -6.460713   -0.000869   -0.145468
     45          1           0       -6.173119   -1.041209   -1.571513
     46          1           0       -7.303574   -1.562500   -0.297656
 ---------------------------------------------------------------------

 SCF Done:  E(RLC-wHPBE) =  -1092.60179878     A.U. after   14 cycles

 The electronic state is 1-A.
 Alpha  occ. eigenvalues --  -18.88673 -18.88606 -18.88522 -14.11317 -10.04416
 Alpha  occ. eigenvalues --  -10.04351 -10.04259 -10.04095 -10.04036 -10.03951
 Alpha  occ. eigenvalues --  -10.02210 -10.02180 -10.02147  -9.98997  -9.98953
 Alpha  occ. eigenvalues --   -9.98869  -9.98856  -9.98829  -9.98812  -9.98772
 Alpha  occ. eigenvalues --   -9.98731  -9.98709  -9.98606  -9.98542  -9.98481
 Alpha  occ. eigenvalues --   -1.08964  -1.08898  -1.08812  -0.99068  -0.89276
 Alpha  occ. eigenvalues --   -0.89207  -0.87328  -0.80530  -0.80360  -0.79099
 Alpha  occ. eigenvalues --   -0.78897  -0.78420  -0.77413  -0.74557  -0.74171
 Alpha  occ. eigenvalues --   -0.71382  -0.67160  -0.66412  -0.65712  -0.64450
 Alpha  occ. eigenvalues --   -0.64059  -0.61669  -0.59494  -0.59432  -0.58602
 Alpha  occ. eigenvalues --   -0.56808  -0.56587  -0.54405  -0.53079  -0.52852
 Alpha  occ. eigenvalues --   -0.52246  -0.52183  -0.52098  -0.49857  -0.49823
 Alpha  occ. eigenvalues --   -0.49672  -0.47873  -0.47745  -0.47576  -0.47391
 Alpha  occ. eigenvalues --   -0.46641  -0.46525  -0.46446  -0.44422  -0.44281
 Alpha  occ. eigenvalues --   -0.44092  -0.43909  -0.43538  -0.41791  -0.40999
 Alpha  occ. eigenvalues --   -0.40812  -0.39425  -0.38384  -0.38233  -0.37885
 Alpha  occ. eigenvalues --   -0.37692  -0.37602  -0.33282  -0.32543  -0.31691
 Alpha  occ. eigenvalues --   -0.31463  -0.28803  -0.28594  -0.22547
 Alpha virt. eigenvalues --    0.02872   0.04647   0.04766   0.05218   0.05405
 Alpha virt. eigenvalues --    0.09372   0.10006   0.10415   0.10460   0.12169
 Alpha virt. eigenvalues --    0.12247   0.12349   0.13482   0.14122   0.14309

 Mulliken charges:
               1
     1  N   -0.006569
     2  C   -0.088700
     3  C   -0.095506
     4  C   -0.073029
     5  C   -0.201083
     6  C   -0.212496
     7  C    0.136173
     8  H    0.137075
     9  H    0.137281
    10  H    0.135667
    11  H    0.109093
    12  C   -0.082809
    13  C   -0.106072
    14  C   -0.070627
    15  C   -0.200200
    16  C   -0.212389
    17  C    0.135674
    18  H    0.136361
    19  H    0.140718
    20  H    0.135769
    21  H    0.109216
    22  O   -0.135837
    23  C   -0.242850
    24  H    0.124411
    25  H    0.126347
    26  H    0.144361
    27  O   -0.135946
    28  C   -0.242744
    29  H    0.124849
    30  H    0.125980
    31  H    0.144383
    32  C   -0.070564
    33  C   -0.108395
    34  C   -0.083585
    35  C   -0.200119
    36  C   -0.211142
    37  C    0.135390
    38  H    0.140463
    39  H    0.140240
    40  H    0.135578
    41  H    0.109238
    42  O   -0.136013
    43  C   -0.242620
    44  H    0.125150
    45  H    0.125708
    46  H    0.144169
 Sum of Mulliken charges =  -0.00000

 Dipole moment (field-independent basis, Debye):
    X=              1.2125    Y=              1.3434    Z=             -0.7940  Tot=              1.9762
 Quadrupole moment (field-independent basis, Debye-Ang):
   XX=           -118.8884   YY=           -142.6722   ZZ=           -145.8842
   XY=             -0.3999   XZ=              6.6391   YZ=             -7.2963

 Normal termination of Gaussian 16 at Sun Jan 17 02:23:27 2021.
