 Gaussian 16, Revision A.03,
 Gaussian 16:  EM64L-G16RevA.03 25-Dec-2016

 ------------------------------------------------------------
 #P LC-wHPBE/TZVP iop(3/107=0069400000, 3/108=0069400000) opt
 ------------------------------------------------------------

 ----------
 H21 C19 N2
 ----------
 Symbolic Z-matrix:
 Charge =  1 Multiplicity = 1

 SCF Done:  E(RLC-wHPBE) =  -844.983379379     A.U. after   21 cycles
 SCF Done:  E(RLC-wHPBE) =  -845.055377064     A.U. after   17 cycles
 SCF Done:  E(RLC-wHPBE) =  -845.108726744     A.U. after   25 cycles
 SCF Done:  E(RLC-wHPBE) =  -845.128020843     A.U. after   18 cycles
 SCF Done:  E(RLC-wHPBE) =  -845.157780520     A.U. after   17 cycles
 SCF Done:  E(RLC-wHPBE) =  -845.181886516     A.U. after   16 cycles
 SCF Done:  E(RLC-wHPBE) =  -845.201713123     A.U. after   17 cycles
 SCF Done:  E(RLC-wHPBE) =  -845.207750995     A.U. after   14 cycles
 SCF Done:  E(RLC-wHPBE) =  -845.210716842     A.U. after   19 cycles
 SCF Done:  E(RLC-wHPBE) =  -845.213318758     A.U. after   30 cycles
 SCF Done:  E(RLC-wHPBE) =  -845.216756859     A.U. after   16 cycles
 SCF Done:  E(RLC-wHPBE) =  -845.216777181     A.U. after   17 cycles
 SCF Done:  E(RLC-wHPBE) =  -845.216787809     A.U. after   14 cycles
 SCF Done:  E(RLC-wHPBE) =  -845.216795528     A.U. after   14 cycles
 SCF Done:  E(RLC-wHPBE) =  -845.216802366     A.U. after   15 cycles
 SCF Done:  E(RLC-wHPBE) =  -845.216805925     A.U. after   16 cycles
 SCF Done:  E(RLC-wHPBE) =  -845.216808145     A.U. after   16 cycles
 SCF Done:  E(RLC-wHPBE) =  -845.216808999     A.U. after    9 cycles
 SCF Done:  E(RLC-wHPBE) =  -845.216809072     A.U. after    7 cycles
 SCF Done:  E(RLC-wHPBE) =  -845.216809102     A.U. after    7 cycles
 Optimization completed.
    -- Stationary point found.

                         Standard orientation:
 ---------------------------------------------------------------------
 Center     Atomic      Atomic             Coordinates (Angstroms)
 Number     Number       Type             X           Y           Z
 ---------------------------------------------------------------------
      1          6           0        5.924302   -1.175178    0.282560
      2          6           0        6.625626    0.000025   -0.000251
      3          6           0        4.530324   -1.177472    0.278212
      4          6           0        5.924206    1.175202   -0.282951
      5          6           0        3.810936   -0.000036   -0.000021
      6          6           0        4.530233    1.177435   -0.278371
      7          1           0        7.716547    0.000056   -0.000331
      8          1           0        3.994064   -2.094974    0.527939
      9          1           0        6.466302    2.093210   -0.514746
     10          1           0        3.993880    2.094904   -0.528010
     11          6           0        2.333716   -0.000062    0.000109
     12          6           0        1.604784    1.119278    0.452707
     13          6           0        1.604752   -1.119433   -0.452341
     14          6           0        0.216850    1.125770    0.449243
     15          6           0        0.216813   -1.125977   -0.448670
     16          6           0       -0.504919   -0.000106    0.000309
     17          1           0        2.141671    1.985727    0.840835
     18          1           0        2.141597   -1.985891   -0.840507
     19          1           0       -0.315693    1.995203    0.838189
     20          1           0       -0.315745   -1.995465   -0.837475
     21          1           0        6.466484   -2.093156    0.514265
     22          6           0       -1.942874   -0.000086    0.000402
     23          6           0       -3.143323   -0.702637   -0.003392
     24          6           0       -3.143127    0.702801    0.003915
     25          7           0       -3.787080   -1.855019    0.001668
     26          7           0       -3.786774    1.855252   -0.001097
     27          6           0       -3.068411   -3.122520    0.167733
     28          1           0       -3.187886   -3.748580   -0.728596
     29          1           0       -2.005788   -2.927607    0.341041
     30          1           0       -3.471162   -3.663551    1.036238
     31          6           0       -5.245121   -1.944160   -0.100275
     32          1           0       -5.509149   -2.713998   -0.838669
     33          1           0       -5.688951   -2.217262    0.869111
     34          1           0       -5.659251   -0.989594   -0.439085
     35          6           0       -3.068047    3.122616   -0.168130
     36          1           0       -3.188116    3.749602    0.727455
     37          1           0       -2.005304    2.927538   -0.340531
     38          1           0       -3.470192    3.662707   -1.037509
     39          6           0       -5.244950    1.944232    0.099391
     40          1           0       -5.509538    2.718440    0.832954
     41          1           0       -5.688631    2.211256   -0.871774
     42          1           0       -5.658779    0.991638    0.444142
 ---------------------------------------------------------------------

 The electronic state is 1-A.
 Alpha  occ. eigenvalues --  -14.22401 -14.22400 -10.14435 -10.14402 -10.10903
 Alpha  occ. eigenvalues --  -10.09345 -10.09344 -10.08940 -10.08940 -10.06998
 Alpha  occ. eigenvalues --  -10.05255 -10.05116 -10.05116 -10.03925 -10.03923
 Alpha  occ. eigenvalues --  -10.02845 -10.01445 -10.01444 -10.00914 -10.00897
 Alpha  occ. eigenvalues --  -10.00861  -1.09032  -1.06742  -1.01048  -0.94295
 Alpha  occ. eigenvalues --   -0.90640  -0.86036  -0.84063  -0.83876  -0.83332
 Alpha  occ. eigenvalues --   -0.82506  -0.81549  -0.79886  -0.79798  -0.73174
 Alpha  occ. eigenvalues --   -0.70920  -0.67369  -0.67353  -0.66310  -0.66128
 Alpha  occ. eigenvalues --   -0.65470  -0.62361  -0.61654  -0.61329  -0.60009
 Alpha  occ. eigenvalues --   -0.59916  -0.57457  -0.56373  -0.55011  -0.54634
 Alpha  occ. eigenvalues --   -0.54447  -0.53767  -0.53302  -0.53159  -0.52955
 Alpha  occ. eigenvalues --   -0.52442  -0.52393  -0.51972  -0.51353  -0.51034
 Alpha  occ. eigenvalues --   -0.49616  -0.49610  -0.48296  -0.46911  -0.45837
 Alpha  occ. eigenvalues --   -0.45142  -0.43521  -0.42727  -0.42158  -0.40896
 Alpha  occ. eigenvalues --   -0.38533  -0.36937  -0.35172  -0.33734
 Alpha virt. eigenvalues --   -0.16689  -0.12142  -0.10015  -0.09855  -0.08780
 Alpha virt. eigenvalues --   -0.08715  -0.05993  -0.05758  -0.04779  -0.03840
 Alpha virt. eigenvalues --   -0.03832  -0.02808  -0.01945  -0.01481  -0.00915

 Mulliken charges:
               1
     1  C   -0.088266
     2  C   -0.109104
     3  C   -0.109470
     4  C   -0.088264
     5  C   -0.016166
     6  C   -0.109472
     7  H    0.128368
     8  H    0.132997
     9  H    0.122212
    10  H    0.132997
    11  C    0.027732
    12  C   -0.150681
    13  C   -0.150681
    14  C   -0.100522
    15  C   -0.100547
    16  C    0.195734
    17  H    0.149689
    18  H    0.149682
    19  H    0.131339
    20  H    0.131300
    21  H    0.122212
    22  C   -0.467763
    23  C    0.051828
    24  C    0.051850
    25  N    0.009944
    26  N    0.009939
    27  C   -0.261028
    28  H    0.173779
    29  H    0.157039
    30  H    0.169616
    31  C   -0.263356
    32  H    0.170723
    33  H    0.178943
    34  H    0.145948
    35  C   -0.261161
    36  H    0.173842
    37  H    0.156963
    38  H    0.169694
    39  C   -0.264001
    40  H    0.170771
    41  H    0.179088
    42  H    0.146254
 Sum of Mulliken charges =   1.00000

 Dipole moment (field-independent basis, Debye):
    X=            -11.2530    Y=              0.0004    Z=             -0.0017  Tot=             11.2530
 Quadrupole moment (field-independent basis, Debye-Ang):
   XX=            -22.5374   YY=            -84.9544   ZZ=           -126.3585
   XY=             -0.0016   XZ=              0.0058   YZ=              0.2567

 Normal termination of Gaussian 16 at Thu Jan 21 00:04:22 2021.
