 Gaussian 16, Revision A.03,
 Gaussian 16:  EM64L-G16RevA.03 25-Dec-2016

 ----------------------------------------------------------------------
 #P LC-wHPBE/TZVP iop(3/107=0186500000, 3/108=0186500000) scf=(conver=6
 ,fermi,ndamp=35,noincfock,novaracc,vshift=500,xqc)
 ----------------------------------------------------------------------

 -------------
 H19 C24 N1 O2
 -------------
 Symbolic Z-matrix:
 Charge =  1 Multiplicity = 2

                         Standard orientation:
 ---------------------------------------------------------------------
 Center     Atomic      Atomic             Coordinates (Angstroms)
 Number     Number       Type             X           Y           Z
 ---------------------------------------------------------------------
      1          6           0       -6.538108   -0.217341    1.255514
      2          6           0       -7.258661    0.087287    0.107878
      3          6           0       -5.151390   -0.259049    1.219222
      4          6           0       -6.580697    0.348691   -1.075777
      5          6           0       -4.458004    0.000662    0.035726
      6          6           0       -5.193998    0.304569   -1.110911
      7          1           0       -8.345644    0.121015    0.135956
      8          1           0       -4.593910   -0.476283    2.128350
      9          1           0       -7.136138    0.581164   -1.982188
     10          1           0       -4.671509    0.488761   -2.047704
     11          6           0       -2.974479   -0.044963   -0.002770
     12          6           0       -2.240322    0.918366   -0.694597
     13          6           0       -2.265576   -1.051297    0.654611
     14          6           0       -0.856277    0.875925   -0.739808
     15          6           0       -0.881570   -1.094369    0.628888
     16          6           0       -0.155643   -0.133238   -0.077397
     17          1           0       -2.762026    1.727417   -1.202285
     18          1           0       -2.809037   -1.823891    1.195264
     19          1           0       -0.306381    1.639189   -1.284917
     20          1           0       -0.352632   -1.885069    1.155020
     21          1           0       -7.059465   -0.416189    2.189743
     22          7           0        1.257026   -0.160831   -0.103806
     23          6           0        1.965402   -1.377887   -0.174570
     24          6           0        3.190004   -1.508547    0.478017
     25          6           0        1.461496   -2.456008   -0.912094
     26          6           0        3.903051   -2.696891    0.390217
     27          6           0        2.178621   -3.638306   -0.974610
     28          6           0        3.402953   -3.775056   -0.332839
     29          1           0        3.600761   -0.690157    1.062074
     30          1           0        0.514840   -2.358097   -1.435231
     31          1           0        1.782807   -4.471654   -1.551437
     32          1           0        3.963923   -4.706428   -0.398055
     33          6           0        1.972861    1.068372   -0.045814
     34          6           0        2.971482    1.350948   -0.972341
     35          6           0        1.683086    2.012203    0.939258
     36          6           0        3.676780    2.543988   -0.910119
     37          6           0        2.365608    3.214996    0.992156
     38          6           0        3.371443    3.483300    0.069272
     39          1           0        3.205268    0.621566   -1.744392
     40          1           0        0.904271    1.798314    1.667748
     41          1           0        4.460878    2.747602   -1.639197
     42          1           0        2.139895    3.954598    1.756001
     43          8           0        4.022986    4.680331    0.173244
     44          1           0        4.695287    4.738350   -0.517835
     45          8           0        5.097214   -2.751708    1.053752
     46          1           0        5.479651   -3.631493    0.941087
 ---------------------------------------------------------------------

 SCF Done:  E(ULC-wHPBE) =  -1130.26067585     A.U. after   23 cycles

 The electronic state is 2-A.
 Alpha  occ. eigenvalues --  -19.01130 -19.00140 -14.32137 -10.18880 -10.18128
 Alpha  occ. eigenvalues --  -10.17879 -10.17700 -10.17231 -10.13729 -10.13489
 Alpha  occ. eigenvalues --  -10.13459 -10.13139 -10.13132 -10.12682 -10.12591
 Alpha  occ. eigenvalues --  -10.12545 -10.12422 -10.12387 -10.12021 -10.11919
 Alpha  occ. eigenvalues --  -10.11916 -10.10251 -10.08736 -10.08733 -10.08095
 Alpha  occ. eigenvalues --  -10.08056 -10.08037  -1.20727  -1.19944  -1.16748
 Alpha  occ. eigenvalues --   -1.03562  -1.03237  -1.01449  -0.98776  -0.94499
 Alpha  occ. eigenvalues --   -0.93756  -0.92563  -0.91842  -0.91605  -0.89843
 Alpha  occ. eigenvalues --   -0.87655  -0.86881  -0.82162  -0.81947  -0.80133
 Alpha  occ. eigenvalues --   -0.78926  -0.78091  -0.76970  -0.74344  -0.73792
 Alpha  occ. eigenvalues --   -0.73455  -0.72857  -0.72430  -0.68415  -0.68012
 Alpha  occ. eigenvalues --   -0.67417  -0.67114  -0.64837  -0.64675  -0.63588
 Alpha  occ. eigenvalues --   -0.62708  -0.61407  -0.61238  -0.60880  -0.60476
 Alpha  occ. eigenvalues --   -0.60111  -0.59828  -0.59542  -0.59225  -0.58712
 Alpha  occ. eigenvalues --   -0.58319  -0.57087  -0.56211  -0.55921  -0.55798
 Alpha  occ. eigenvalues --   -0.54759  -0.54456  -0.53550  -0.53063  -0.52754
 Alpha  occ. eigenvalues --   -0.52407  -0.52133  -0.50302  -0.49081  -0.48440
 Alpha  occ. eigenvalues --   -0.46645  -0.45758  -0.45065  -0.44315  -0.41806
 Alpha  occ. eigenvalues --   -0.41055  -0.41005  -0.38792
 Alpha virt. eigenvalues --   -0.11056  -0.10442  -0.09924  -0.08499  -0.07547
 Alpha virt. eigenvalues --   -0.06429  -0.05046  -0.03456  -0.01608  -0.01307
 Alpha virt. eigenvalues --   -0.00686   0.00475   0.00972   0.02227   0.02489

  Beta  occ. eigenvalues --  -19.01041 -19.00158 -14.31337 -10.18767 -10.18189
  Beta  occ. eigenvalues --  -10.17945 -10.17725 -10.17236 -10.13628 -10.13395
  Beta  occ. eigenvalues --  -10.13275 -10.13000 -10.12995 -10.12703 -10.12474
  Beta  occ. eigenvalues --  -10.12414 -10.12355 -10.12299 -10.12046 -10.11975
  Beta  occ. eigenvalues --  -10.11970 -10.10266 -10.08702 -10.08699 -10.08085
  Beta  occ. eigenvalues --  -10.08069 -10.08025  -1.20566  -1.19975  -1.15725
  Beta  occ. eigenvalues --   -1.03345  -1.03041  -1.01181  -0.98672  -0.94292
  Beta  occ. eigenvalues --   -0.93544  -0.92447  -0.91689  -0.91444  -0.89522
  Beta  occ. eigenvalues --   -0.87620  -0.86639  -0.81915  -0.81754  -0.79935
  Beta  occ. eigenvalues --   -0.78753  -0.77970  -0.76839  -0.74255  -0.73687
  Beta  occ. eigenvalues --   -0.73365  -0.72731  -0.72249  -0.68295  -0.67808
  Beta  occ. eigenvalues --   -0.67004  -0.66946  -0.64633  -0.64554  -0.63479
  Beta  occ. eigenvalues --   -0.62605  -0.61277  -0.61111  -0.60810  -0.60335
  Beta  occ. eigenvalues --   -0.59910  -0.59511  -0.59358  -0.59071  -0.58636
  Beta  occ. eigenvalues --   -0.57733  -0.56835  -0.56143  -0.55789  -0.55675
  Beta  occ. eigenvalues --   -0.54386  -0.54208  -0.53070  -0.52951  -0.52533
  Beta  occ. eigenvalues --   -0.52326  -0.52050  -0.49155  -0.49039  -0.48298
  Beta  occ. eigenvalues --   -0.45998  -0.45114  -0.44687  -0.43002  -0.40997
  Beta  occ. eigenvalues --   -0.40963  -0.39812
  Beta virt. eigenvalues --   -0.23807  -0.10398  -0.10121  -0.09340  -0.08036
  Beta virt. eigenvalues --   -0.07048  -0.05660  -0.04964  -0.02930  -0.01566
  Beta virt. eigenvalues --   -0.01274  -0.00614   0.00549   0.01045   0.02277

 Mulliken charges and spin densities:
               1          2
     1  C   -0.087074  -0.012944
     2  C   -0.108423   0.028833
     3  C   -0.127068   0.025708
     4  C   -0.087319  -0.012968
     5  C    0.025377  -0.019498
     6  C   -0.127009   0.025901
     7  H    0.133676  -0.001480
     8  H    0.140081  -0.001363
     9  H    0.127481   0.000637
    10  H    0.139862  -0.001340
    11  C    0.014946   0.142727
    12  C   -0.138388  -0.055937
    13  C   -0.142140  -0.057033
    14  C   -0.081938   0.097152
    15  C   -0.109300   0.098755
    16  C   -0.030692  -0.001110
    17  H    0.161803   0.002547
    18  H    0.160527   0.002500
    19  H    0.168646  -0.004210
    20  H    0.184645  -0.004196
    21  H    0.127611   0.000640
    22  N    0.088921   0.355647
    23  C    0.031570  -0.027390
    24  C   -0.176153   0.086799
    25  C   -0.155291   0.124369
    26  C    0.055312  -0.054459
    27  C   -0.114301  -0.067586
    28  C   -0.098489   0.153993
    29  H    0.187340  -0.003724
    30  H    0.188931  -0.005203
    31  H    0.144283   0.003034
    32  H    0.146700  -0.007915
    33  C   -0.232608   0.011071
    34  C   -0.017035   0.066850
    35  C    0.008870   0.059707
    36  C   -0.160961  -0.026028
    37  C   -0.197936  -0.028225
    38  C    0.141297   0.082962
    39  H    0.165954  -0.003196
    40  H    0.162841  -0.002657
    41  H    0.148979   0.001319
    42  H    0.161396   0.001661
    43  O   -0.193539   0.031340
    44  H    0.288318  -0.000771
    45  O   -0.207129  -0.005064
    46  H    0.287427   0.000143
 Sum of Mulliken charges =   1.00000   1.00000

 Dipole moment (field-independent basis, Debye):
    X=              4.3470    Y=             -1.4552    Z=             -1.7757  Tot=              4.9160
 Quadrupole moment (field-independent basis, Debye-Ang):
   XX=            -68.1764   YY=           -109.7499   ZZ=           -143.1028
   XY=             -4.1969   XZ=             -9.6253   YZ=             -5.9364

 Normal termination of Gaussian 16 at Sun Jan 17 20:33:31 2021.
