 Gaussian 16, Revision A.03,
 Gaussian 16:  EM64L-G16RevA.03 25-Dec-2016

 ----------------------------------------------------------------------
 #P LC-wHPBE/TZVP iop(3/107=0328100000, 3/108=0328100000) scf=(conver=6
 ,fermi,ndamp=35,noincfock,novaracc,vshift=500,xqc)
 ----------------------------------------------------------------------

 -------------
 H19 C24 N1 O2
 -------------
 Symbolic Z-matrix:
 Charge =  0 Multiplicity = 1

                         Standard orientation:
 ---------------------------------------------------------------------
 Center     Atomic      Atomic             Coordinates (Angstroms)
 Number     Number       Type             X           Y           Z
 ---------------------------------------------------------------------
      1          6           0       -6.538108   -0.217341    1.255514
      2          6           0       -7.258661    0.087287    0.107878
      3          6           0       -5.151390   -0.259049    1.219222
      4          6           0       -6.580697    0.348691   -1.075777
      5          6           0       -4.458004    0.000662    0.035726
      6          6           0       -5.193998    0.304569   -1.110911
      7          1           0       -8.345644    0.121015    0.135956
      8          1           0       -4.593910   -0.476283    2.128350
      9          1           0       -7.136138    0.581164   -1.982188
     10          1           0       -4.671509    0.488761   -2.047704
     11          6           0       -2.974479   -0.044963   -0.002770
     12          6           0       -2.240322    0.918366   -0.694597
     13          6           0       -2.265576   -1.051297    0.654611
     14          6           0       -0.856277    0.875925   -0.739808
     15          6           0       -0.881570   -1.094369    0.628888
     16          6           0       -0.155643   -0.133238   -0.077397
     17          1           0       -2.762026    1.727417   -1.202285
     18          1           0       -2.809037   -1.823891    1.195264
     19          1           0       -0.306381    1.639189   -1.284917
     20          1           0       -0.352632   -1.885069    1.155020
     21          1           0       -7.059465   -0.416189    2.189743
     22          7           0        1.257026   -0.160831   -0.103806
     23          6           0        1.965402   -1.377887   -0.174570
     24          6           0        3.190004   -1.508547    0.478017
     25          6           0        1.461496   -2.456008   -0.912094
     26          6           0        3.903051   -2.696891    0.390217
     27          6           0        2.178621   -3.638306   -0.974610
     28          6           0        3.402953   -3.775056   -0.332839
     29          1           0        3.600761   -0.690157    1.062074
     30          1           0        0.514840   -2.358097   -1.435231
     31          1           0        1.782807   -4.471654   -1.551437
     32          1           0        3.963923   -4.706428   -0.398055
     33          6           0        1.972861    1.068372   -0.045814
     34          6           0        2.971482    1.350948   -0.972341
     35          6           0        1.683086    2.012203    0.939258
     36          6           0        3.676780    2.543988   -0.910119
     37          6           0        2.365608    3.214996    0.992156
     38          6           0        3.371443    3.483300    0.069272
     39          1           0        3.205268    0.621566   -1.744392
     40          1           0        0.904271    1.798314    1.667748
     41          1           0        4.460878    2.747602   -1.639197
     42          1           0        2.139895    3.954598    1.756001
     43          8           0        4.022986    4.680331    0.173244
     44          1           0        4.695287    4.738350   -0.517835
     45          8           0        5.097214   -2.751708    1.053752
     46          1           0        5.479651   -3.631493    0.941087
 ---------------------------------------------------------------------

 SCF Done:  E(RLC-wHPBE) =  -1130.67228170     A.U. after   15 cycles

 The electronic state is 1-A.
 Alpha  occ. eigenvalues --  -18.96259 -18.95969 -14.19751 -10.13614 -10.13436
 Alpha  occ. eigenvalues --  -10.11747 -10.11369 -10.10865 -10.08199 -10.07884
 Alpha  occ. eigenvalues --  -10.07839 -10.07795 -10.07691 -10.07661 -10.07232
 Alpha  occ. eigenvalues --  -10.07217 -10.07185 -10.07112 -10.07108 -10.06994
 Alpha  occ. eigenvalues --  -10.06992 -10.06968 -10.06903 -10.06893 -10.06754
 Alpha  occ. eigenvalues --  -10.06230 -10.06197  -1.16416  -1.16136  -1.07958
 Alpha  occ. eigenvalues --   -0.98750  -0.97725  -0.96997  -0.95415  -0.89482
 Alpha  occ. eigenvalues --   -0.87501  -0.87131  -0.86391  -0.86170  -0.85635
 Alpha  occ. eigenvalues --   -0.84590  -0.81632  -0.75591  -0.75021  -0.73659
 Alpha  occ. eigenvalues --   -0.72943  -0.71858  -0.70825  -0.70410  -0.68888
 Alpha  occ. eigenvalues --   -0.66622  -0.65746  -0.64873  -0.63358  -0.60880
 Alpha  occ. eigenvalues --   -0.59705  -0.59317  -0.58337  -0.57422  -0.56829
 Alpha  occ. eigenvalues --   -0.55364  -0.54922  -0.54554  -0.53996  -0.53725
 Alpha  occ. eigenvalues --   -0.53305  -0.52977  -0.52725  -0.52570  -0.52061
 Alpha  occ. eigenvalues --   -0.51315  -0.50222  -0.49554  -0.49016  -0.48068
 Alpha  occ. eigenvalues --   -0.47824  -0.47017  -0.46343  -0.45534  -0.45145
 Alpha  occ. eigenvalues --   -0.44510  -0.44311  -0.43666  -0.43155  -0.40947
 Alpha  occ. eigenvalues --   -0.37384  -0.36165  -0.35300  -0.35155  -0.34470
 Alpha  occ. eigenvalues --   -0.32681  -0.32102  -0.26824
 Alpha virt. eigenvalues --    0.03563   0.04704   0.05765   0.06512   0.07024
 Alpha virt. eigenvalues --    0.07875   0.08310   0.10873   0.11118   0.11424
 Alpha virt. eigenvalues --    0.13041   0.13669   0.14231   0.14631   0.15307

 Mulliken charges:
               1
     1  C   -0.102812
     2  C   -0.146274
     3  C   -0.158448
     4  C   -0.102971
     5  C   -0.000960
     6  C   -0.158839
     7  H    0.124708
     8  H    0.149806
     9  H    0.122195
    10  H    0.149468
    11  C    0.017187
    12  C   -0.166259
    13  C   -0.170767
    14  C   -0.121473
    15  C   -0.138459
    16  C   -0.036321
    17  H    0.146759
    18  H    0.145364
    19  H    0.164552
    20  H    0.177464
    21  H    0.122347
    22  N   -0.051496
    23  C    0.047419
    24  C   -0.218495
    25  C   -0.207979
    26  C    0.070508
    27  C   -0.123337
    28  C   -0.183672
    29  H    0.182952
    30  H    0.181042
    31  H    0.122532
    32  H    0.120189
    33  C   -0.223201
    34  C   -0.049121
    35  C   -0.021079
    36  C   -0.194206
    37  C   -0.222078
    38  C    0.119538
    39  H    0.160185
    40  H    0.157393
    41  H    0.128184
    42  H    0.140631
    43  O   -0.249570
    44  H    0.271396
    45  O   -0.245560
    46  H    0.271558
 Sum of Mulliken charges =  -0.00000

 Dipole moment (field-independent basis, Debye):
    X=              1.1270    Y=             -1.1682    Z=             -1.5427  Tot=              2.2393
 Quadrupole moment (field-independent basis, Debye-Ang):
   XX=           -137.5202   YY=           -145.8876   ZZ=           -151.4458
   XY=             -4.0420   XZ=             -9.0998   YZ=             -6.8708

 Normal termination of Gaussian 16 at Sun Jan 17 18:27:27 2021.
