 Gaussian 16, Revision A.03,
 Gaussian 16:  EM64L-G16RevA.03 25-Dec-2016

 ----------------------------------------------------------------------
 #P LC-wHPBE/TZVP iop(3/107=0156200000, 3/108=0156200000) scf=(conver=6
 ,fermi,ndamp=35,noincfock,novaracc,vshift=500,xqc)
 ----------------------------------------------------------------------

 -------------
 H19 C24 N1 O2
 -------------
 Symbolic Z-matrix:
 Charge =  1 Multiplicity = 2

                         Standard orientation:
 ---------------------------------------------------------------------
 Center     Atomic      Atomic             Coordinates (Angstroms)
 Number     Number       Type             X           Y           Z
 ---------------------------------------------------------------------
      1          6           0       -6.538108   -0.217341    1.255514
      2          6           0       -7.258661    0.087287    0.107878
      3          6           0       -5.151390   -0.259049    1.219222
      4          6           0       -6.580697    0.348691   -1.075777
      5          6           0       -4.458004    0.000662    0.035726
      6          6           0       -5.193998    0.304569   -1.110911
      7          1           0       -8.345644    0.121015    0.135956
      8          1           0       -4.593910   -0.476283    2.128350
      9          1           0       -7.136138    0.581164   -1.982188
     10          1           0       -4.671509    0.488761   -2.047704
     11          6           0       -2.974479   -0.044963   -0.002770
     12          6           0       -2.240322    0.918366   -0.694597
     13          6           0       -2.265576   -1.051297    0.654611
     14          6           0       -0.856277    0.875925   -0.739808
     15          6           0       -0.881570   -1.094369    0.628888
     16          6           0       -0.155643   -0.133238   -0.077397
     17          1           0       -2.762026    1.727417   -1.202285
     18          1           0       -2.809037   -1.823891    1.195264
     19          1           0       -0.306381    1.639189   -1.284917
     20          1           0       -0.352632   -1.885069    1.155020
     21          1           0       -7.059465   -0.416189    2.189743
     22          7           0        1.257026   -0.160831   -0.103806
     23          6           0        1.965402   -1.377887   -0.174570
     24          6           0        3.190004   -1.508547    0.478017
     25          6           0        1.461496   -2.456008   -0.912094
     26          6           0        3.903051   -2.696891    0.390217
     27          6           0        2.178621   -3.638306   -0.974610
     28          6           0        3.402953   -3.775056   -0.332839
     29          1           0        3.600761   -0.690157    1.062074
     30          1           0        0.514840   -2.358097   -1.435231
     31          1           0        1.782807   -4.471654   -1.551437
     32          1           0        3.963923   -4.706428   -0.398055
     33          6           0        1.972861    1.068372   -0.045814
     34          6           0        2.971482    1.350948   -0.972341
     35          6           0        1.683086    2.012203    0.939258
     36          6           0        3.676780    2.543988   -0.910119
     37          6           0        2.365608    3.214996    0.992156
     38          6           0        3.371443    3.483300    0.069272
     39          1           0        3.205268    0.621566   -1.744392
     40          1           0        0.904271    1.798314    1.667748
     41          1           0        4.460878    2.747602   -1.639197
     42          1           0        2.139895    3.954598    1.756001
     43          8           0        4.022986    4.680331    0.173244
     44          1           0        4.695287    4.738350   -0.517835
     45          8           0        5.097214   -2.751708    1.053752
     46          1           0        5.479651   -3.631493    0.941087
 ---------------------------------------------------------------------

 SCF Done:  E(ULC-wHPBE) =  -1130.21830501     A.U. after   23 cycles

 The electronic state is 2-A.
 Alpha  occ. eigenvalues --  -18.99563 -18.98506 -14.30105 -10.17112 -10.16332
 Alpha  occ. eigenvalues --  -10.16044 -10.15893 -10.15455 -10.11927 -10.11693
 Alpha  occ. eigenvalues --  -10.11681 -10.11323 -10.11318 -10.10970 -10.10778
 Alpha  occ. eigenvalues --  -10.10764 -10.10603 -10.10598 -10.10314 -10.10183
 Alpha  occ. eigenvalues --  -10.10181 -10.08606 -10.07085 -10.07082 -10.06463
 Alpha  occ. eigenvalues --  -10.06416 -10.06400  -1.19050  -1.18207  -1.14736
 Alpha  occ. eigenvalues --   -1.01685  -1.01355  -0.99586  -0.97004  -0.92686
 Alpha  occ. eigenvalues --   -0.91943  -0.90775  -0.90031  -0.89801  -0.88084
 Alpha  occ. eigenvalues --   -0.85969  -0.85171  -0.80452  -0.80276  -0.78461
 Alpha  occ. eigenvalues --   -0.77245  -0.76433  -0.75359  -0.72763  -0.72226
 Alpha  occ. eigenvalues --   -0.71859  -0.71276  -0.70895  -0.66841  -0.66445
 Alpha  occ. eigenvalues --   -0.65848  -0.65608  -0.63332  -0.63174  -0.62091
 Alpha  occ. eigenvalues --   -0.61243  -0.59909  -0.59767  -0.59437  -0.58992
 Alpha  occ. eigenvalues --   -0.58673  -0.58315  -0.58102  -0.57775  -0.57307
 Alpha  occ. eigenvalues --   -0.56812  -0.55643  -0.54860  -0.54564  -0.54424
 Alpha  occ. eigenvalues --   -0.53331  -0.53142  -0.52126  -0.51682  -0.51369
 Alpha  occ. eigenvalues --   -0.51092  -0.50802  -0.48916  -0.47870  -0.47233
 Alpha  occ. eigenvalues --   -0.45476  -0.44617  -0.43941  -0.43169  -0.40705
 Alpha  occ. eigenvalues --   -0.40057  -0.40004  -0.37807
 Alpha virt. eigenvalues --   -0.11798  -0.11254  -0.10708  -0.09370  -0.08390
 Alpha virt. eigenvalues --   -0.07281  -0.05996  -0.04419  -0.02513  -0.02178
 Alpha virt. eigenvalues --   -0.01532  -0.00376   0.00136   0.01404   0.01662

  Beta  occ. eigenvalues --  -18.99470 -18.98520 -14.29349 -10.17003 -10.16384
  Beta  occ. eigenvalues --  -10.16096 -10.15905 -10.15450 -10.11832 -10.11605
  Beta  occ. eigenvalues --  -10.11506 -10.11194 -10.11190 -10.10984 -10.10681
  Beta  occ. eigenvalues --  -10.10609 -10.10579 -10.10485 -10.10332 -10.10228
  Beta  occ. eigenvalues --  -10.10225 -10.08616 -10.07051 -10.07048 -10.06448
  Beta  occ. eigenvalues --  -10.06428 -10.06391  -1.18883  -1.18231  -1.13763
  Beta  occ. eigenvalues --   -1.01470  -1.01160  -0.99330  -0.96901  -0.92481
  Beta  occ. eigenvalues --   -0.91731  -0.90659  -0.89883  -0.89644  -0.87782
  Beta  occ. eigenvalues --   -0.85933  -0.84937  -0.80216  -0.80092  -0.78271
  Beta  occ. eigenvalues --   -0.77075  -0.76311  -0.75231  -0.72677  -0.72123
  Beta  occ. eigenvalues --   -0.71768  -0.71160  -0.70713  -0.66729  -0.66264
  Beta  occ. eigenvalues --   -0.65460  -0.65446  -0.63142  -0.63055  -0.61986
  Beta  occ. eigenvalues --   -0.61144  -0.59785  -0.59656  -0.59368  -0.58869
  Beta  occ. eigenvalues --   -0.58484  -0.57998  -0.57928  -0.57620  -0.57240
  Beta  occ. eigenvalues --   -0.56252  -0.55426  -0.54801  -0.54440  -0.54305
  Beta  occ. eigenvalues --   -0.53072  -0.52805  -0.51697  -0.51581  -0.51178
  Beta  occ. eigenvalues --   -0.51003  -0.50725  -0.47952  -0.47828  -0.47107
  Beta  occ. eigenvalues --   -0.44888  -0.44045  -0.43606  -0.42017  -0.39994
  Beta  occ. eigenvalues --   -0.39964  -0.38910
  Beta virt. eigenvalues --   -0.24183  -0.11164  -0.10951  -0.10153  -0.08953
  Beta virt. eigenvalues --   -0.07938  -0.06607  -0.05913  -0.03951  -0.02472
  Beta virt. eigenvalues --   -0.02145  -0.01456  -0.00302   0.00209   0.01456

 Mulliken charges and spin densities:
               1          2
     1  C   -0.085219  -0.011953
     2  C   -0.104995   0.029833
     3  C   -0.123227   0.025126
     4  C   -0.085464  -0.011983
     5  C    0.022295  -0.015555
     6  C   -0.123157   0.025328
     7  H    0.132078  -0.001547
     8  H    0.138068  -0.001363
     9  H    0.125793   0.000596
    10  H    0.137860  -0.001342
    11  C    0.018386   0.134949
    12  C   -0.134989  -0.046693
    13  C   -0.138708  -0.048017
    14  C   -0.082289   0.088639
    15  C   -0.110732   0.090492
    16  C   -0.026799   0.008130
    17  H    0.158724   0.002154
    18  H    0.157473   0.002115
    19  H    0.164912  -0.003885
    20  H    0.181129  -0.003879
    21  H    0.125922   0.000599
    22  N    0.089181   0.335197
    23  C    0.031929  -0.018194
    24  C   -0.175071   0.078361
    25  C   -0.153444   0.117507
    26  C    0.056234  -0.047151
    27  C   -0.112152  -0.059738
    28  C   -0.095069   0.148022
    29  H    0.183351  -0.003422
    30  H    0.185439  -0.004947
    31  H    0.141893   0.002703
    32  H    0.144156  -0.007689
    33  C   -0.229309   0.018870
    34  C   -0.018053   0.061305
    35  C    0.007114   0.054342
    36  C   -0.155903  -0.019550
    37  C   -0.193255  -0.021909
    38  C    0.140962   0.079025
    39  H    0.162759  -0.002967
    40  H    0.159535  -0.002454
    41  H    0.146668   0.001046
    42  H    0.159119   0.001406
    43  O   -0.192466   0.033248
    44  H    0.288534  -0.000810
    45  O   -0.206664  -0.004068
    46  H    0.287450   0.000122
 Sum of Mulliken charges =   1.00000   1.00000

 Dipole moment (field-independent basis, Debye):
    X=              4.2670    Y=             -1.3754    Z=             -1.7503  Tot=              4.8128
 Quadrupole moment (field-independent basis, Debye-Ang):
   XX=            -67.2784   YY=           -109.6761   ZZ=           -143.2395
   XY=             -3.9588   XZ=             -9.5289   YZ=             -5.9416

 Normal termination of Gaussian 16 at Sun Jan 17 19:26:33 2021.
