 Gaussian 16, Revision A.03,
 Gaussian 16:  EM64L-G16RevA.03 25-Dec-2016

 ----------------------------------------------------------------------
 #P LC-wHPBE/TZVP iop(3/107=0168400000, 3/108=0168400000) scf=(conver=6
 ,fermi,ndamp=35,noincfock,novaracc,vshift=500,xqc)
 ----------------------------------------------------------------------

 -------------
 H19 C24 N1 O2
 -------------
 Symbolic Z-matrix:
 Charge =  0 Multiplicity = 1

                         Standard orientation:
 ---------------------------------------------------------------------
 Center     Atomic      Atomic             Coordinates (Angstroms)
 Number     Number       Type             X           Y           Z
 ---------------------------------------------------------------------
      1          6           0       -6.538108   -0.217341    1.255514
      2          6           0       -7.258661    0.087287    0.107878
      3          6           0       -5.151390   -0.259049    1.219222
      4          6           0       -6.580697    0.348691   -1.075777
      5          6           0       -4.458004    0.000662    0.035726
      6          6           0       -5.193998    0.304569   -1.110911
      7          1           0       -8.345644    0.121015    0.135956
      8          1           0       -4.593910   -0.476283    2.128350
      9          1           0       -7.136138    0.581164   -1.982188
     10          1           0       -4.671509    0.488761   -2.047704
     11          6           0       -2.974479   -0.044963   -0.002770
     12          6           0       -2.240322    0.918366   -0.694597
     13          6           0       -2.265576   -1.051297    0.654611
     14          6           0       -0.856277    0.875925   -0.739808
     15          6           0       -0.881570   -1.094369    0.628888
     16          6           0       -0.155643   -0.133238   -0.077397
     17          1           0       -2.762026    1.727417   -1.202285
     18          1           0       -2.809037   -1.823891    1.195264
     19          1           0       -0.306381    1.639189   -1.284917
     20          1           0       -0.352632   -1.885069    1.155020
     21          1           0       -7.059465   -0.416189    2.189743
     22          7           0        1.257026   -0.160831   -0.103806
     23          6           0        1.965402   -1.377887   -0.174570
     24          6           0        3.190004   -1.508547    0.478017
     25          6           0        1.461496   -2.456008   -0.912094
     26          6           0        3.903051   -2.696891    0.390217
     27          6           0        2.178621   -3.638306   -0.974610
     28          6           0        3.402953   -3.775056   -0.332839
     29          1           0        3.600761   -0.690157    1.062074
     30          1           0        0.514840   -2.358097   -1.435231
     31          1           0        1.782807   -4.471654   -1.551437
     32          1           0        3.963923   -4.706428   -0.398055
     33          6           0        1.972861    1.068372   -0.045814
     34          6           0        2.971482    1.350948   -0.972341
     35          6           0        1.683086    2.012203    0.939258
     36          6           0        3.676780    2.543988   -0.910119
     37          6           0        2.365608    3.214996    0.992156
     38          6           0        3.371443    3.483300    0.069272
     39          1           0        3.205268    0.621566   -1.744392
     40          1           0        0.904271    1.798314    1.667748
     41          1           0        4.460878    2.747602   -1.639197
     42          1           0        2.139895    3.954598    1.756001
     43          8           0        4.022986    4.680331    0.173244
     44          1           0        4.695287    4.738350   -0.517835
     45          8           0        5.097214   -2.751708    1.053752
     46          1           0        5.479651   -3.631493    0.941087
 ---------------------------------------------------------------------

 SCF Done:  E(RLC-wHPBE) =  -1130.47323154     A.U. after   14 cycles

 The electronic state is 1-A.
 Alpha  occ. eigenvalues --  -18.87988 -18.87616 -14.11330 -10.04405 -10.04113
 Alpha  occ. eigenvalues --  -10.02417 -10.02164 -10.01777  -9.99104  -9.98866
 Alpha  occ. eigenvalues --   -9.98775  -9.98709  -9.98616  -9.98444  -9.98225
 Alpha  occ. eigenvalues --   -9.98135  -9.98124  -9.98061  -9.98057  -9.97944
 Alpha  occ. eigenvalues --   -9.97942  -9.97928  -9.97880  -9.97874  -9.97739
 Alpha  occ. eigenvalues --   -9.97265  -9.97199  -1.07667  -1.07307  -0.98708
 Alpha  occ. eigenvalues --   -0.89265  -0.88409  -0.87654  -0.86244  -0.80598
 Alpha  occ. eigenvalues --   -0.78798  -0.78435  -0.77660  -0.77510  -0.76972
 Alpha  occ. eigenvalues --   -0.76136  -0.73400  -0.67896  -0.67404  -0.65999
 Alpha  occ. eigenvalues --   -0.65226  -0.64392  -0.63386  -0.62918  -0.61626
 Alpha  occ. eigenvalues --   -0.59650  -0.58964  -0.57986  -0.56474  -0.54109
 Alpha  occ. eigenvalues --   -0.53031  -0.52845  -0.51736  -0.50939  -0.50431
 Alpha  occ. eigenvalues --   -0.49070  -0.48577  -0.48201  -0.47720  -0.47451
 Alpha  occ. eigenvalues --   -0.47152  -0.46669  -0.46263  -0.46072  -0.45840
 Alpha  occ. eigenvalues --   -0.45354  -0.43957  -0.43417  -0.43112  -0.42150
 Alpha  occ. eigenvalues --   -0.41926  -0.41405  -0.40375  -0.39690  -0.39493
 Alpha  occ. eigenvalues --   -0.39024  -0.38826  -0.38306  -0.37824  -0.35744
 Alpha  occ. eigenvalues --   -0.33102  -0.32083  -0.31268  -0.31207  -0.30395
 Alpha  occ. eigenvalues --   -0.29007  -0.28122  -0.23518
 Alpha virt. eigenvalues --    0.01091   0.02047   0.03061   0.03668   0.04073
 Alpha virt. eigenvalues --    0.04963   0.05365   0.07789   0.08092   0.08272
 Alpha virt. eigenvalues --    0.10272   0.10847   0.11329   0.11833   0.12625

 Mulliken charges:
               1
     1  C   -0.085629
     2  C   -0.120402
     3  C   -0.131404
     4  C   -0.085844
     5  C   -0.003113
     6  C   -0.131587
     7  H    0.102878
     8  H    0.125367
     9  H    0.099906
    10  H    0.125048
    11  C    0.038831
    12  C   -0.151755
    13  C   -0.155622
    14  C   -0.108313
    15  C   -0.131468
    16  C   -0.016536
    17  H    0.120640
    18  H    0.119444
    19  H    0.136137
    20  H    0.150214
    21  H    0.100051
    22  N    0.000754
    23  C    0.049614
    24  C   -0.205888
    25  C   -0.180238
    26  C    0.065925
    27  C   -0.116332
    28  C   -0.150502
    29  H    0.153359
    30  H    0.154367
    31  H    0.099352
    32  H    0.097590
    33  C   -0.211923
    34  C   -0.033302
    35  C   -0.008154
    36  C   -0.179669
    37  C   -0.210503
    38  C    0.130163
    39  H    0.132995
    40  H    0.130216
    41  H    0.105789
    42  H    0.116410
    43  O   -0.239227
    44  H    0.268902
    45  O   -0.235281
    46  H    0.268739
 Sum of Mulliken charges =  -0.00000

 Dipole moment (field-independent basis, Debye):
    X=              1.4011    Y=             -0.9704    Z=             -1.4311  Tot=              2.2255
 Quadrupole moment (field-independent basis, Debye-Ang):
   XX=           -138.1639   YY=           -146.2607   ZZ=           -152.4432
   XY=             -3.4387   XZ=             -8.4902   YZ=             -6.7958

 Normal termination of Gaussian 16 at Sun Jan 17 19:37:27 2021.
