 Gaussian 16, Revision A.03,
 Gaussian 16:  EM64L-G16RevA.03 25-Dec-2016

 ----------------------------------------------------------------------
 #P LC-wHPBE/TZVP iop(3/107=0176600000, 3/108=0176600000) scf=(conver=6
 ,fermi,ndamp=35,noincfock,novaracc,vshift=500,xqc)
 ----------------------------------------------------------------------

 -------------
 H19 C24 N1 O2
 -------------
 Symbolic Z-matrix:
 Charge =  0 Multiplicity = 1

                         Standard orientation:
 ---------------------------------------------------------------------
 Center     Atomic      Atomic             Coordinates (Angstroms)
 Number     Number       Type             X           Y           Z
 ---------------------------------------------------------------------
      1          6           0       -6.538108   -0.217341    1.255514
      2          6           0       -7.258661    0.087287    0.107878
      3          6           0       -5.151390   -0.259049    1.219222
      4          6           0       -6.580697    0.348691   -1.075777
      5          6           0       -4.458004    0.000662    0.035726
      6          6           0       -5.193998    0.304569   -1.110911
      7          1           0       -8.345644    0.121015    0.135956
      8          1           0       -4.593910   -0.476283    2.128350
      9          1           0       -7.136138    0.581164   -1.982188
     10          1           0       -4.671509    0.488761   -2.047704
     11          6           0       -2.974479   -0.044963   -0.002770
     12          6           0       -2.240322    0.918366   -0.694597
     13          6           0       -2.265576   -1.051297    0.654611
     14          6           0       -0.856277    0.875925   -0.739808
     15          6           0       -0.881570   -1.094369    0.628888
     16          6           0       -0.155643   -0.133238   -0.077397
     17          1           0       -2.762026    1.727417   -1.202285
     18          1           0       -2.809037   -1.823891    1.195264
     19          1           0       -0.306381    1.639189   -1.284917
     20          1           0       -0.352632   -1.885069    1.155020
     21          1           0       -7.059465   -0.416189    2.189743
     22          7           0        1.257026   -0.160831   -0.103806
     23          6           0        1.965402   -1.377887   -0.174570
     24          6           0        3.190004   -1.508547    0.478017
     25          6           0        1.461496   -2.456008   -0.912094
     26          6           0        3.903051   -2.696891    0.390217
     27          6           0        2.178621   -3.638306   -0.974610
     28          6           0        3.402953   -3.775056   -0.332839
     29          1           0        3.600761   -0.690157    1.062074
     30          1           0        0.514840   -2.358097   -1.435231
     31          1           0        1.782807   -4.471654   -1.551437
     32          1           0        3.963923   -4.706428   -0.398055
     33          6           0        1.972861    1.068372   -0.045814
     34          6           0        2.971482    1.350948   -0.972341
     35          6           0        1.683086    2.012203    0.939258
     36          6           0        3.676780    2.543988   -0.910119
     37          6           0        2.365608    3.214996    0.992156
     38          6           0        3.371443    3.483300    0.069272
     39          1           0        3.205268    0.621566   -1.744392
     40          1           0        0.904271    1.798314    1.667748
     41          1           0        4.460878    2.747602   -1.639197
     42          1           0        2.139895    3.954598    1.756001
     43          8           0        4.022986    4.680331    0.173244
     44          1           0        4.695287    4.738350   -0.517835
     45          8           0        5.097214   -2.751708    1.053752
     46          1           0        5.479651   -3.631493    0.941087
 ---------------------------------------------------------------------

 SCF Done:  E(RLC-wHPBE) =  -1130.48539897     A.U. after   14 cycles

 The electronic state is 1-A.
 Alpha  occ. eigenvalues --  -18.88421 -18.88054 -14.11760 -10.04874 -10.04588
 Alpha  occ. eigenvalues --  -10.02893 -10.02635 -10.02241  -9.99571  -9.99326
 Alpha  occ. eigenvalues --   -9.99239  -9.99176  -9.99080  -9.98916  -9.98684
 Alpha  occ. eigenvalues --   -9.98602  -9.98590  -9.98527  -9.98522  -9.98409
 Alpha  occ. eigenvalues --   -9.98408  -9.98394  -9.98343  -9.98337  -9.98202
 Alpha  occ. eigenvalues --   -9.97725  -9.97660  -1.08126  -1.07770  -0.99185
 Alpha  occ. eigenvalues --   -0.89760  -0.88898  -0.88145  -0.86729  -0.81077
 Alpha  occ. eigenvalues --   -0.79270  -0.78906  -0.78134  -0.77982  -0.77444
 Alpha  occ. eigenvalues --   -0.76600  -0.73856  -0.68335  -0.67840  -0.66437
 Alpha  occ. eigenvalues --   -0.65667  -0.64822  -0.63816  -0.63350  -0.62050
 Alpha  occ. eigenvalues --   -0.60065  -0.59368  -0.58398  -0.56889  -0.54516
 Alpha  occ. eigenvalues --   -0.53429  -0.53236  -0.52136  -0.51331  -0.50819
 Alpha  occ. eigenvalues --   -0.49453  -0.48964  -0.48589  -0.48103  -0.47833
 Alpha  occ. eigenvalues --   -0.47528  -0.47052  -0.46658  -0.46469  -0.46225
 Alpha  occ. eigenvalues --   -0.45722  -0.44342  -0.43796  -0.43480  -0.42502
 Alpha  occ. eigenvalues --   -0.42319  -0.41755  -0.40747  -0.40054  -0.39856
 Alpha  occ. eigenvalues --   -0.39368  -0.39170  -0.38644  -0.38160  -0.36087
 Alpha  occ. eigenvalues --   -0.33408  -0.32376  -0.31558  -0.31495  -0.30682
 Alpha  occ. eigenvalues --   -0.29273  -0.28402  -0.23749
 Alpha virt. eigenvalues --    0.01296   0.02272   0.03283   0.03903   0.04316
 Alpha virt. eigenvalues --    0.05199   0.05604   0.08033   0.08332   0.08526
 Alpha virt. eigenvalues --    0.10499   0.11075   0.11563   0.12062   0.12849

 Mulliken charges:
               1
     1  C   -0.086026
     2  C   -0.121286
     3  C   -0.132428
     4  C   -0.086241
     5  C   -0.002349
     6  C   -0.132619
     7  H    0.103490
     8  H    0.126136
     9  H    0.100531
    10  H    0.125813
    11  C    0.038075
    12  C   -0.152626
    13  C   -0.156514
    14  C   -0.108504
    15  C   -0.131273
    16  C   -0.017109
    17  H    0.121460
    18  H    0.120259
    19  H    0.137087
    20  H    0.151127
    21  H    0.100677
    22  N   -0.001602
    23  C    0.050198
    24  C   -0.206548
    25  C   -0.181068
    26  C    0.066022
    27  C   -0.116617
    28  C   -0.151884
    29  H    0.154365
    30  H    0.155240
    31  H    0.100012
    32  H    0.098296
    33  C   -0.212211
    34  C   -0.033234
    35  C   -0.007856
    36  C   -0.180795
    37  C   -0.211578
    38  C    0.130008
    39  H    0.133853
    40  H    0.131082
    41  H    0.106470
    42  H    0.117093
    43  O   -0.239277
    44  H    0.268914
    45  O   -0.235332
    46  H    0.268765
 Sum of Mulliken charges =  -0.00000

 Dipole moment (field-independent basis, Debye):
    X=              1.3849    Y=             -0.9804    Z=             -1.4361  Tot=              2.2230
 Quadrupole moment (field-independent basis, Debye-Ang):
   XX=           -138.1277   YY=           -146.2438   ZZ=           -152.3925
   XY=             -3.4693   XZ=             -8.5173   YZ=             -6.7981

 Normal termination of Gaussian 16 at Sun Jan 17 21:51:22 2021.
