 Gaussian 16, Revision A.03,
 Gaussian 16:  EM64L-G16RevA.03 25-Dec-2016

 ----------------------------------------------------------------------
 #P LC-wHPBE/TZVP iop(3/107=0181900000, 3/108=0181900000) scf=(conver=6
 ,fermi,ndamp=35,noincfock,novaracc,vshift=500,xqc)
 ----------------------------------------------------------------------

 -------------
 H19 C24 N1 O2
 -------------
 Symbolic Z-matrix:
 Charge =  1 Multiplicity = 2

                         Standard orientation:
 ---------------------------------------------------------------------
 Center     Atomic      Atomic             Coordinates (Angstroms)
 Number     Number       Type             X           Y           Z
 ---------------------------------------------------------------------
      1          6           0       -6.538108   -0.217341    1.255514
      2          6           0       -7.258661    0.087287    0.107878
      3          6           0       -5.151390   -0.259049    1.219222
      4          6           0       -6.580697    0.348691   -1.075777
      5          6           0       -4.458004    0.000662    0.035726
      6          6           0       -5.193998    0.304569   -1.110911
      7          1           0       -8.345644    0.121015    0.135956
      8          1           0       -4.593910   -0.476283    2.128350
      9          1           0       -7.136138    0.581164   -1.982188
     10          1           0       -4.671509    0.488761   -2.047704
     11          6           0       -2.974479   -0.044963   -0.002770
     12          6           0       -2.240322    0.918366   -0.694597
     13          6           0       -2.265576   -1.051297    0.654611
     14          6           0       -0.856277    0.875925   -0.739808
     15          6           0       -0.881570   -1.094369    0.628888
     16          6           0       -0.155643   -0.133238   -0.077397
     17          1           0       -2.762026    1.727417   -1.202285
     18          1           0       -2.809037   -1.823891    1.195264
     19          1           0       -0.306381    1.639189   -1.284917
     20          1           0       -0.352632   -1.885069    1.155020
     21          1           0       -7.059465   -0.416189    2.189743
     22          7           0        1.257026   -0.160831   -0.103806
     23          6           0        1.965402   -1.377887   -0.174570
     24          6           0        3.190004   -1.508547    0.478017
     25          6           0        1.461496   -2.456008   -0.912094
     26          6           0        3.903051   -2.696891    0.390217
     27          6           0        2.178621   -3.638306   -0.974610
     28          6           0        3.402953   -3.775056   -0.332839
     29          1           0        3.600761   -0.690157    1.062074
     30          1           0        0.514840   -2.358097   -1.435231
     31          1           0        1.782807   -4.471654   -1.551437
     32          1           0        3.963923   -4.706428   -0.398055
     33          6           0        1.972861    1.068372   -0.045814
     34          6           0        2.971482    1.350948   -0.972341
     35          6           0        1.683086    2.012203    0.939258
     36          6           0        3.676780    2.543988   -0.910119
     37          6           0        2.365608    3.214996    0.992156
     38          6           0        3.371443    3.483300    0.069272
     39          1           0        3.205268    0.621566   -1.744392
     40          1           0        0.904271    1.798314    1.667748
     41          1           0        4.460878    2.747602   -1.639197
     42          1           0        2.139895    3.954598    1.756001
     43          8           0        4.022986    4.680331    0.173244
     44          1           0        4.695287    4.738350   -0.517835
     45          8           0        5.097214   -2.751708    1.053752
     46          1           0        5.479651   -3.631493    0.941087
 ---------------------------------------------------------------------

 SCF Done:  E(ULC-wHPBE) =  -1130.25427438     A.U. after   23 cycles

 The electronic state is 2-A.
 Alpha  occ. eigenvalues --  -19.00893 -18.99894 -14.31831 -10.18611 -10.17856
 Alpha  occ. eigenvalues --  -10.17602 -10.17426 -10.16962 -10.13457 -10.13217
 Alpha  occ. eigenvalues --  -10.13189 -10.12864 -10.12857 -10.12423 -10.12317
 Alpha  occ. eigenvalues --  -10.12275 -10.12147 -10.12117 -10.11763 -10.11656
 Alpha  occ. eigenvalues --  -10.11653 -10.09999 -10.08484 -10.08481 -10.07845
 Alpha  occ. eigenvalues --  -10.07806 -10.07787  -1.20473  -1.19682  -1.16444
 Alpha  occ. eigenvalues --   -1.03277  -1.02952  -1.01166  -0.98505  -0.94225
 Alpha  occ. eigenvalues --   -0.93483  -0.92293  -0.91568  -0.91333  -0.89578
 Alpha  occ. eigenvalues --   -0.87399  -0.86623  -0.81906  -0.81697  -0.79883
 Alpha  occ. eigenvalues --   -0.78674  -0.77844  -0.76730  -0.74107  -0.73558
 Alpha  occ. eigenvalues --   -0.73217  -0.72622  -0.72204  -0.68181  -0.67779
 Alpha  occ. eigenvalues --   -0.67185  -0.66892  -0.64614  -0.64453  -0.63366
 Alpha  occ. eigenvalues --   -0.62492  -0.61186  -0.61021  -0.60667  -0.60257
 Alpha  occ. eigenvalues --   -0.59898  -0.59605  -0.59329  -0.59012  -0.58503
 Alpha  occ. eigenvalues --   -0.58098  -0.56874  -0.56011  -0.55721  -0.55597
 Alpha  occ. eigenvalues --   -0.54549  -0.54262  -0.53341  -0.52859  -0.52551
 Alpha  occ. eigenvalues --   -0.52214  -0.51938  -0.50100  -0.48902  -0.48262
 Alpha  occ. eigenvalues --   -0.46478  -0.45595  -0.44904  -0.44151  -0.41649
 Alpha  occ. eigenvalues --   -0.40912  -0.40861  -0.38651
 Alpha virt. eigenvalues --   -0.11159  -0.10555  -0.10033  -0.08621  -0.07665
 Alpha virt. eigenvalues --   -0.06548  -0.05178  -0.03590  -0.01736  -0.01430
 Alpha virt. eigenvalues --   -0.00805   0.00356   0.00855   0.02112   0.02373

  Beta  occ. eigenvalues --  -19.00804 -18.99911 -14.31038 -10.18499 -10.17915
  Beta  occ. eigenvalues --  -10.17665 -10.17449 -10.16966 -10.13356 -10.13124
  Beta  occ. eigenvalues --  -10.13007 -10.12727 -10.12721 -10.12442 -10.12202
  Beta  occ. eigenvalues --  -10.12141 -10.12086 -10.12025 -10.11787 -10.11709
  Beta  occ. eigenvalues --  -10.11705 -10.10014 -10.08450 -10.08447 -10.07835
  Beta  occ. eigenvalues --  -10.07819 -10.07775  -1.20311  -1.19711  -1.15428
  Beta  occ. eigenvalues --   -1.03060  -1.02756  -1.00900  -0.98402  -0.94018
  Beta  occ. eigenvalues --   -0.93271  -0.92177  -0.91416  -0.91173  -0.89260
  Beta  occ. eigenvalues --   -0.87363  -0.86382  -0.81661  -0.81506  -0.79687
  Beta  occ. eigenvalues --   -0.78502  -0.77722  -0.76600  -0.74018  -0.73453
  Beta  occ. eigenvalues --   -0.73126  -0.72498  -0.72023  -0.68062  -0.67580
  Beta  occ. eigenvalues --   -0.66775  -0.66724  -0.64413  -0.64333  -0.63258
  Beta  occ. eigenvalues --   -0.62390  -0.61057  -0.60896  -0.60598  -0.60118
  Beta  occ. eigenvalues --   -0.59699  -0.59287  -0.59146  -0.58858  -0.58430
  Beta  occ. eigenvalues --   -0.57515  -0.56628  -0.55944  -0.55591  -0.55474
  Beta  occ. eigenvalues --   -0.54193  -0.54002  -0.52870  -0.52749  -0.52334
  Beta  occ. eigenvalues --   -0.52133  -0.51856  -0.48982  -0.48860  -0.48123
  Beta  occ. eigenvalues --   -0.45839  -0.44961  -0.44533  -0.42860  -0.40853
  Beta  occ. eigenvalues --   -0.40820  -0.39682
  Beta virt. eigenvalues --   -0.23858  -0.10505  -0.10237  -0.09454  -0.08165
  Beta virt. eigenvalues --   -0.07174  -0.05793  -0.05096  -0.03074  -0.01693
  Beta virt. eigenvalues --   -0.01397  -0.00733   0.00430   0.00928   0.02163

 Mulliken charges and spin densities:
               1          2
     1  C   -0.086740  -0.012759
     2  C   -0.107845   0.028889
     3  C   -0.126429   0.025570
     4  C   -0.086986  -0.012784
     5  C    0.024981  -0.018915
     6  C   -0.126368   0.025764
     7  H    0.133356  -0.001486
     8  H    0.139698  -0.001361
     9  H    0.127147   0.000629
    10  H    0.139480  -0.001338
    11  C    0.015499   0.141467
    12  C   -0.137866  -0.054475
    13  C   -0.141611  -0.055600
    14  C   -0.081944   0.095826
    15  C   -0.109477   0.097464
    16  C   -0.030019   0.000352
    17  H    0.161269   0.002486
    18  H    0.159997   0.002440
    19  H    0.168013  -0.004160
    20  H    0.184048  -0.004148
    21  H    0.127276   0.000633
    22  N    0.089043   0.352645
    23  C    0.031703  -0.025907
    24  C   -0.175991   0.085483
    25  C   -0.154942   0.123236
    26  C    0.055463  -0.053270
    27  C   -0.113950  -0.066290
    28  C   -0.097928   0.152956
    29  H    0.186671  -0.003677
    30  H    0.188342  -0.005162
    31  H    0.143856   0.002981
    32  H    0.146259  -0.007876
    33  C   -0.232044   0.012302
    34  C   -0.017109   0.065990
    35  C    0.008692   0.058879
    36  C   -0.160215  -0.025018
    37  C   -0.197263  -0.027238
    38  C    0.141308   0.082316
    39  H    0.165400  -0.003162
    40  H    0.162274  -0.002626
    41  H    0.148569   0.001277
    42  H    0.160981   0.001622
    43  O   -0.193345   0.031598
    44  H    0.288342  -0.000776
    45  O   -0.207018  -0.004917
    46  H    0.287424   0.000140
 Sum of Mulliken charges =   1.00000   1.00000

 Dipole moment (field-independent basis, Debye):
    X=              4.3380    Y=             -1.4434    Z=             -1.7717  Tot=              4.9031
 Quadrupole moment (field-independent basis, Debye-Ang):
   XX=            -68.0541   YY=           -109.7375   ZZ=           -143.1242
   XY=             -4.1617   XZ=             -9.6096   YZ=             -5.9368

 Normal termination of Gaussian 16 at Sun Jan 17 22:47:22 2021.
