 Gaussian 16, Revision A.03,
 Gaussian 16:  EM64L-G16RevA.03 25-Dec-2016

 ----------------------------------------------------------------------
 #P LC-wHPBE/TZVP iop(3/107=0156200000, 3/108=0156200000) scf=(conver=6
 ,fermi,ndamp=35,noincfock,novaracc,vshift=500,xqc)
 ----------------------------------------------------------------------

 -------------
 H19 C24 N1 O2
 -------------
 Symbolic Z-matrix:
 Charge =  0 Multiplicity = 1

                         Standard orientation:
 ---------------------------------------------------------------------
 Center     Atomic      Atomic             Coordinates (Angstroms)
 Number     Number       Type             X           Y           Z
 ---------------------------------------------------------------------
      1          6           0       -6.538108   -0.217341    1.255514
      2          6           0       -7.258661    0.087287    0.107878
      3          6           0       -5.151390   -0.259049    1.219222
      4          6           0       -6.580697    0.348691   -1.075777
      5          6           0       -4.458004    0.000662    0.035726
      6          6           0       -5.193998    0.304569   -1.110911
      7          1           0       -8.345644    0.121015    0.135956
      8          1           0       -4.593910   -0.476283    2.128350
      9          1           0       -7.136138    0.581164   -1.982188
     10          1           0       -4.671509    0.488761   -2.047704
     11          6           0       -2.974479   -0.044963   -0.002770
     12          6           0       -2.240322    0.918366   -0.694597
     13          6           0       -2.265576   -1.051297    0.654611
     14          6           0       -0.856277    0.875925   -0.739808
     15          6           0       -0.881570   -1.094369    0.628888
     16          6           0       -0.155643   -0.133238   -0.077397
     17          1           0       -2.762026    1.727417   -1.202285
     18          1           0       -2.809037   -1.823891    1.195264
     19          1           0       -0.306381    1.639189   -1.284917
     20          1           0       -0.352632   -1.885069    1.155020
     21          1           0       -7.059465   -0.416189    2.189743
     22          7           0        1.257026   -0.160831   -0.103806
     23          6           0        1.965402   -1.377887   -0.174570
     24          6           0        3.190004   -1.508547    0.478017
     25          6           0        1.461496   -2.456008   -0.912094
     26          6           0        3.903051   -2.696891    0.390217
     27          6           0        2.178621   -3.638306   -0.974610
     28          6           0        3.402953   -3.775056   -0.332839
     29          1           0        3.600761   -0.690157    1.062074
     30          1           0        0.514840   -2.358097   -1.435231
     31          1           0        1.782807   -4.471654   -1.551437
     32          1           0        3.963923   -4.706428   -0.398055
     33          6           0        1.972861    1.068372   -0.045814
     34          6           0        2.971482    1.350948   -0.972341
     35          6           0        1.683086    2.012203    0.939258
     36          6           0        3.676780    2.543988   -0.910119
     37          6           0        2.365608    3.214996    0.992156
     38          6           0        3.371443    3.483300    0.069272
     39          1           0        3.205268    0.621566   -1.744392
     40          1           0        0.904271    1.798314    1.667748
     41          1           0        4.460878    2.747602   -1.639197
     42          1           0        2.139895    3.954598    1.756001
     43          8           0        4.022986    4.680331    0.173244
     44          1           0        4.695287    4.738350   -0.517835
     45          8           0        5.097214   -2.751708    1.053752
     46          1           0        5.479651   -3.631493    0.941087
 ---------------------------------------------------------------------

 SCF Done:  E(RLC-wHPBE) =  -1130.45512348     A.U. after   14 cycles

 The electronic state is 1-A.
 Alpha  occ. eigenvalues --  -18.87340 -18.86962 -14.10690 -10.03707 -10.03407
 Alpha  occ. eigenvalues --  -10.01709 -10.01464 -10.01086  -9.98408  -9.98180
 Alpha  occ. eigenvalues --   -9.98085  -9.98014  -9.97927  -9.97743  -9.97542
 Alpha  occ. eigenvalues --   -9.97441  -9.97430  -9.97368  -9.97364  -9.97250
 Alpha  occ. eigenvalues --   -9.97249  -9.97235  -9.97192  -9.97187  -9.97049
 Alpha  occ. eigenvalues --   -9.96580  -9.96512  -1.06983  -1.06617  -0.97999
 Alpha  occ. eigenvalues --   -0.88531  -0.87684  -0.86924  -0.85521  -0.79884
 Alpha  occ. eigenvalues --   -0.78095  -0.77733  -0.76953  -0.76806  -0.76267
 Alpha  occ. eigenvalues --   -0.75442  -0.72716  -0.67238  -0.66750  -0.65342
 Alpha  occ. eigenvalues --   -0.64563  -0.63745  -0.62739  -0.62268  -0.60986
 Alpha  occ. eigenvalues --   -0.59023  -0.58353  -0.57362  -0.55845  -0.53492
 Alpha  occ. eigenvalues --   -0.52430  -0.52250  -0.51130  -0.50343  -0.49842
 Alpha  occ. eigenvalues --   -0.48487  -0.47991  -0.47611  -0.47140  -0.46872
 Alpha  occ. eigenvalues --   -0.46582  -0.46089  -0.45665  -0.45471  -0.45254
 Alpha  occ. eigenvalues --   -0.44794  -0.43372  -0.42840  -0.42552  -0.41614
 Alpha  occ. eigenvalues --   -0.41327  -0.40869  -0.39808  -0.39136  -0.38937
 Alpha  occ. eigenvalues --   -0.38500  -0.38301  -0.37789  -0.37309  -0.35215
 Alpha  occ. eigenvalues --   -0.32627  -0.31626  -0.30815  -0.30758  -0.29947
 Alpha  occ. eigenvalues --   -0.28591  -0.27685  -0.23156
 Alpha virt. eigenvalues --    0.00764   0.01687   0.02707   0.03295   0.03689
 Alpha virt. eigenvalues --    0.04589   0.04986   0.07405   0.07711   0.07871
 Alpha virt. eigenvalues --    0.09911   0.10485   0.10958   0.11470   0.12270

 Mulliken charges:
               1
     1  C   -0.085161
     2  C   -0.119261
     3  C   -0.130037
     4  C   -0.085375
     5  C   -0.004347
     6  C   -0.130207
     7  H    0.102123
     8  H    0.124371
     9  H    0.099134
    10  H    0.124057
    11  C    0.039827
    12  C   -0.150485
    13  C   -0.154323
    14  C   -0.108128
    15  C   -0.131839
    16  C   -0.015841
    17  H    0.119585
    18  H    0.118393
    19  H    0.134884
    20  H    0.149008
    21  H    0.099279
    22  N    0.004062
    23  C    0.048630
    24  C   -0.204918
    25  C   -0.179194
    26  C    0.065775
    27  C   -0.115937
    28  C   -0.148601
    29  H    0.152027
    30  H    0.153223
    31  H    0.098538
    32  H    0.096682
    33  C   -0.211589
    34  C   -0.033598
    35  C   -0.008795
    36  C   -0.177953
    37  C   -0.208836
    38  C    0.130237
    39  H    0.131889
    40  H    0.129095
    41  H    0.104923
    42  H    0.115569
    43  O   -0.239227
    44  H    0.268903
    45  O   -0.235280
    46  H    0.268719
 Sum of Mulliken charges =  -0.00000

 Dipole moment (field-independent basis, Debye):
    X=              1.4255    Y=             -0.9560    Z=             -1.4239  Tot=              2.2302
 Quadrupole moment (field-independent basis, Debye-Ang):
   XX=           -138.2199   YY=           -146.2851   ZZ=           -152.5170
   XY=             -3.3942   XZ=             -8.4519   YZ=             -6.7927

 Normal termination of Gaussian 16 at Sun Jan 17 19:04:03 2021.
