 Gaussian 16, Revision A.03,
 Gaussian 16:  EM64L-G16RevA.03 25-Dec-2016

 ----------------------------------------------------------------------
 #P LC-wHPBE/TZVP iop(3/107=0191200000, 3/108=0191200000) scf=(conver=6
 ,fermi,ndamp=35,noincfock,novaracc,vshift=500,xqc)
 ----------------------------------------------------------------------

 -------------
 H19 C24 N1 O2
 -------------
 Symbolic Z-matrix:
 Charge =  1 Multiplicity = 2

                         Standard orientation:
 ---------------------------------------------------------------------
 Center     Atomic      Atomic             Coordinates (Angstroms)
 Number     Number       Type             X           Y           Z
 ---------------------------------------------------------------------
      1          6           0       -6.538108   -0.217341    1.255514
      2          6           0       -7.258661    0.087287    0.107878
      3          6           0       -5.151390   -0.259049    1.219222
      4          6           0       -6.580697    0.348691   -1.075777
      5          6           0       -4.458004    0.000662    0.035726
      6          6           0       -5.193998    0.304569   -1.110911
      7          1           0       -8.345644    0.121015    0.135956
      8          1           0       -4.593910   -0.476283    2.128350
      9          1           0       -7.136138    0.581164   -1.982188
     10          1           0       -4.671509    0.488761   -2.047704
     11          6           0       -2.974479   -0.044963   -0.002770
     12          6           0       -2.240322    0.918366   -0.694597
     13          6           0       -2.265576   -1.051297    0.654611
     14          6           0       -0.856277    0.875925   -0.739808
     15          6           0       -0.881570   -1.094369    0.628888
     16          6           0       -0.155643   -0.133238   -0.077397
     17          1           0       -2.762026    1.727417   -1.202285
     18          1           0       -2.809037   -1.823891    1.195264
     19          1           0       -0.306381    1.639189   -1.284917
     20          1           0       -0.352632   -1.885069    1.155020
     21          1           0       -7.059465   -0.416189    2.189743
     22          7           0        1.257026   -0.160831   -0.103806
     23          6           0        1.965402   -1.377887   -0.174570
     24          6           0        3.190004   -1.508547    0.478017
     25          6           0        1.461496   -2.456008   -0.912094
     26          6           0        3.903051   -2.696891    0.390217
     27          6           0        2.178621   -3.638306   -0.974610
     28          6           0        3.402953   -3.775056   -0.332839
     29          1           0        3.600761   -0.690157    1.062074
     30          1           0        0.514840   -2.358097   -1.435231
     31          1           0        1.782807   -4.471654   -1.551437
     32          1           0        3.963923   -4.706428   -0.398055
     33          6           0        1.972861    1.068372   -0.045814
     34          6           0        2.971482    1.350948   -0.972341
     35          6           0        1.683086    2.012203    0.939258
     36          6           0        3.676780    2.543988   -0.910119
     37          6           0        2.365608    3.214996    0.992156
     38          6           0        3.371443    3.483300    0.069272
     39          1           0        3.205268    0.621566   -1.744392
     40          1           0        0.904271    1.798314    1.667748
     41          1           0        4.460878    2.747602   -1.639197
     42          1           0        2.139895    3.954598    1.756001
     43          8           0        4.022986    4.680331    0.173244
     44          1           0        4.695287    4.738350   -0.517835
     45          8           0        5.097214   -2.751708    1.053752
     46          1           0        5.479651   -3.631493    0.941087
 ---------------------------------------------------------------------

 SCF Done:  E(ULC-wHPBE) =  -1130.26718672     A.U. after   23 cycles

 The electronic state is 2-A.
 Alpha  occ. eigenvalues --  -19.01372 -19.00391 -14.32449 -10.19154 -10.18406
 Alpha  occ. eigenvalues --  -10.18163 -10.17980 -10.17505 -10.14008 -10.13767
 Alpha  occ. eigenvalues --  -10.13734 -10.13420 -10.13413 -10.12947 -10.12871
 Alpha  occ. eigenvalues --  -10.12820 -10.12703 -10.12663 -10.12285 -10.12188
 Alpha  occ. eigenvalues --  -10.12185 -10.10508 -10.08994 -10.08991 -10.08351
 Alpha  occ. eigenvalues --  -10.08312 -10.08293  -1.20987  -1.20212  -1.17058
 Alpha  occ. eigenvalues --   -1.03853  -1.03528  -1.01737  -0.99052  -0.94778
 Alpha  occ. eigenvalues --   -0.94035  -0.92838  -0.92120  -0.91882  -0.90113
 Alpha  occ. eigenvalues --   -0.87917  -0.87144  -0.82421  -0.82201  -0.80387
 Alpha  occ. eigenvalues --   -0.79182  -0.78343  -0.77213  -0.74584  -0.74030
 Alpha  occ. eigenvalues --   -0.73698  -0.73095  -0.72659  -0.68652  -0.68247
 Alpha  occ. eigenvalues --   -0.67653  -0.67339  -0.65062  -0.64900  -0.63813
 Alpha  occ. eigenvalues --   -0.62926  -0.61632  -0.61458  -0.61095  -0.60698
 Alpha  occ. eigenvalues --   -0.60327  -0.60054  -0.59759  -0.59440  -0.58923
 Alpha  occ. eigenvalues --   -0.58543  -0.57302  -0.56413  -0.56123  -0.56002
 Alpha  occ. eigenvalues --   -0.54971  -0.54652  -0.53760  -0.53270  -0.52960
 Alpha  occ. eigenvalues --   -0.52601  -0.52330  -0.50506  -0.49261  -0.48619
 Alpha  occ. eigenvalues --   -0.46813  -0.45921  -0.45225  -0.44480  -0.41964
 Alpha  occ. eigenvalues --   -0.41199  -0.41149  -0.38933
 Alpha virt. eigenvalues --   -0.10954  -0.10330  -0.09815  -0.08379  -0.07430
 Alpha virt. eigenvalues --   -0.06310  -0.04915  -0.03322  -0.01482  -0.01185
 Alpha virt. eigenvalues --   -0.00568   0.00594   0.01088   0.02340   0.02603

  Beta  occ. eigenvalues --  -19.01283 -19.00409 -14.31643 -10.19040 -10.18468
  Beta  occ. eigenvalues --  -10.18230 -10.18007 -10.17512 -10.13905 -10.13671
  Beta  occ. eigenvalues --  -10.13550 -10.13279 -10.13273 -10.12968 -10.12751
  Beta  occ. eigenvalues --  -10.12692 -10.12630 -10.12578 -10.12311 -10.12246
  Beta  occ. eigenvalues --  -10.12241 -10.10524 -10.08960 -10.08957 -10.08341
  Beta  occ. eigenvalues --  -10.08326 -10.08281  -1.20826  -1.20243  -1.16028
  Beta  occ. eigenvalues --   -1.03635  -1.03332  -1.01467  -0.98948  -0.94571
  Beta  occ. eigenvalues --   -0.93822  -0.92722  -0.91966  -0.91720  -0.89789
  Beta  occ. eigenvalues --   -0.87882  -0.86900  -0.82173  -0.82007  -0.80188
  Beta  occ. eigenvalues --   -0.79008  -0.78221  -0.77082  -0.74495  -0.73924
  Beta  occ. eigenvalues --   -0.73606  -0.72968  -0.72479  -0.68531  -0.68040
  Beta  occ. eigenvalues --   -0.67236  -0.67169  -0.64856  -0.64779  -0.63703
  Beta  occ. eigenvalues --   -0.62823  -0.61500  -0.61328  -0.61025  -0.60554
  Beta  occ. eigenvalues --   -0.60125  -0.59736  -0.59572  -0.59285  -0.58845
  Beta  occ. eigenvalues --   -0.57952  -0.57044  -0.56344  -0.55990  -0.55878
  Beta  occ. eigenvalues --   -0.54582  -0.54414  -0.53273  -0.53155  -0.52733
  Beta  occ. eigenvalues --   -0.52522  -0.52245  -0.49330  -0.49219  -0.48475
  Beta  occ. eigenvalues --   -0.46157  -0.45268  -0.44840  -0.43144  -0.41140
  Beta  occ. eigenvalues --   -0.41106  -0.39942
  Beta virt. eigenvalues --   -0.23756  -0.10293  -0.10007  -0.09227  -0.07907
  Beta virt. eigenvalues --   -0.06923  -0.05527  -0.04833  -0.02787  -0.01439
  Beta virt. eigenvalues --   -0.01152  -0.00496   0.00669   0.01161   0.02390

 Mulliken charges and spin densities:
               1          2
     1  C   -0.087435  -0.013146
     2  C   -0.109033   0.028807
     3  C   -0.127739   0.025868
     4  C   -0.087679  -0.013169
     5  C    0.025751  -0.020093
     6  C   -0.127682   0.026061
     7  H    0.134029  -0.001476
     8  H    0.140501  -0.001366
     9  H    0.127851   0.000645
    10  H    0.140280  -0.001343
    11  C    0.014371   0.144047
    12  C   -0.138922  -0.057454
    13  C   -0.142682  -0.058522
    14  C   -0.081950   0.098521
    15  C   -0.109135   0.100090
    16  C   -0.031407  -0.002626
    17  H    0.162371   0.002609
    18  H    0.161090   0.002562
    19  H    0.169315  -0.004261
    20  H    0.185279  -0.004246
    21  H    0.127980   0.000648
    22  N    0.088771   0.358675
    23  C    0.031403  -0.028937
    24  C   -0.176316   0.088158
    25  C   -0.155672   0.125561
    26  C    0.055154  -0.055704
    27  C   -0.114667  -0.068948
    28  C   -0.099075   0.155102
    29  H    0.188046  -0.003771
    30  H    0.189552  -0.005247
    31  H    0.144741   0.003091
    32  H    0.147170  -0.007956
    33  C   -0.233206   0.009798
    34  C   -0.016991   0.067736
    35  C    0.009018   0.060558
    36  C   -0.161713  -0.027070
    37  C   -0.198608  -0.029245
    38  C    0.141264   0.083642
    39  H    0.166544  -0.003231
    40  H    0.163443  -0.002687
    41  H    0.149418   0.001362
    42  H    0.161844   0.001702
    43  O   -0.193749   0.031089
    44  H    0.288298  -0.000766
    45  O   -0.207257  -0.005213
    46  H    0.287432   0.000147
 Sum of Mulliken charges =   1.00000   1.00000

 Dipole moment (field-independent basis, Debye):
    X=              4.3553    Y=             -1.4671    Z=             -1.7797  Tot=              4.9283
 Quadrupole moment (field-independent basis, Debye-Ang):
   XX=            -68.2966   YY=           -109.7628   ZZ=           -143.0808
   XY=             -4.2324   XZ=             -9.6418   YZ=             -5.9362

 Normal termination of Gaussian 16 at Sun Jan 17 21:07:00 2021.
