 Gaussian 16, Revision A.03,
 Gaussian 16:  EM64L-G16RevA.03 25-Dec-2016

 ----------------------------------------------------------------------
 #P LC-wHPBE/TZVP iop(3/107=0181600000, 3/108=0181600000) scf=(conver=6
 ,fermi,ndamp=35,noincfock,novaracc,vshift=500,xqc)
 ----------------------------------------------------------------------

 -------------
 H19 C24 N1 O2
 -------------
 Symbolic Z-matrix:
 Charge =  1 Multiplicity = 2

                         Standard orientation:
 ---------------------------------------------------------------------
 Center     Atomic      Atomic             Coordinates (Angstroms)
 Number     Number       Type             X           Y           Z
 ---------------------------------------------------------------------
      1          6           0       -6.538108   -0.217341    1.255514
      2          6           0       -7.258661    0.087287    0.107878
      3          6           0       -5.151390   -0.259049    1.219222
      4          6           0       -6.580697    0.348691   -1.075777
      5          6           0       -4.458004    0.000662    0.035726
      6          6           0       -5.193998    0.304569   -1.110911
      7          1           0       -8.345644    0.121015    0.135956
      8          1           0       -4.593910   -0.476283    2.128350
      9          1           0       -7.136138    0.581164   -1.982188
     10          1           0       -4.671509    0.488761   -2.047704
     11          6           0       -2.974479   -0.044963   -0.002770
     12          6           0       -2.240322    0.918366   -0.694597
     13          6           0       -2.265576   -1.051297    0.654611
     14          6           0       -0.856277    0.875925   -0.739808
     15          6           0       -0.881570   -1.094369    0.628888
     16          6           0       -0.155643   -0.133238   -0.077397
     17          1           0       -2.762026    1.727417   -1.202285
     18          1           0       -2.809037   -1.823891    1.195264
     19          1           0       -0.306381    1.639189   -1.284917
     20          1           0       -0.352632   -1.885069    1.155020
     21          1           0       -7.059465   -0.416189    2.189743
     22          7           0        1.257026   -0.160831   -0.103806
     23          6           0        1.965402   -1.377887   -0.174570
     24          6           0        3.190004   -1.508547    0.478017
     25          6           0        1.461496   -2.456008   -0.912094
     26          6           0        3.903051   -2.696891    0.390217
     27          6           0        2.178621   -3.638306   -0.974610
     28          6           0        3.402953   -3.775056   -0.332839
     29          1           0        3.600761   -0.690157    1.062074
     30          1           0        0.514840   -2.358097   -1.435231
     31          1           0        1.782807   -4.471654   -1.551437
     32          1           0        3.963923   -4.706428   -0.398055
     33          6           0        1.972861    1.068372   -0.045814
     34          6           0        2.971482    1.350948   -0.972341
     35          6           0        1.683086    2.012203    0.939258
     36          6           0        3.676780    2.543988   -0.910119
     37          6           0        2.365608    3.214996    0.992156
     38          6           0        3.371443    3.483300    0.069272
     39          1           0        3.205268    0.621566   -1.744392
     40          1           0        0.904271    1.798314    1.667748
     41          1           0        4.460878    2.747602   -1.639197
     42          1           0        2.139895    3.954598    1.756001
     43          8           0        4.022986    4.680331    0.173244
     44          1           0        4.695287    4.738350   -0.517835
     45          8           0        5.097214   -2.751708    1.053752
     46          1           0        5.479651   -3.631493    0.941087
 ---------------------------------------------------------------------

 SCF Done:  E(ULC-wHPBE) =  -1130.25385605     A.U. after   23 cycles

 The electronic state is 2-A.
 Alpha  occ. eigenvalues --  -19.00878 -18.99878 -14.31811 -10.18594 -10.17838
 Alpha  occ. eigenvalues --  -10.17583 -10.17408 -10.16945 -10.13439 -10.13200
 Alpha  occ. eigenvalues --  -10.13171 -10.12846 -10.12840 -10.12406 -10.12299
 Alpha  occ. eigenvalues --  -10.12258 -10.12129 -10.12100 -10.11746 -10.11638
 Alpha  occ. eigenvalues --  -10.11636 -10.09983 -10.08467 -10.08464 -10.07829
 Alpha  occ. eigenvalues --  -10.07789 -10.07770  -1.20456  -1.19664  -1.16424
 Alpha  occ. eigenvalues --   -1.03258  -1.02933  -1.01148  -0.98488  -0.94207
 Alpha  occ. eigenvalues --   -0.93465  -0.92276  -0.91551  -0.91315  -0.89561
 Alpha  occ. eigenvalues --   -0.87382  -0.86606  -0.81889  -0.81681  -0.79867
 Alpha  occ. eigenvalues --   -0.78658  -0.77828  -0.76714  -0.74092  -0.73543
 Alpha  occ. eigenvalues --   -0.73201  -0.72606  -0.72189  -0.68166  -0.67764
 Alpha  occ. eigenvalues --   -0.67169  -0.66877  -0.64599  -0.64439  -0.63352
 Alpha  occ. eigenvalues --   -0.62478  -0.61171  -0.61006  -0.60653  -0.60243
 Alpha  occ. eigenvalues --   -0.59884  -0.59590  -0.59315  -0.58998  -0.58490
 Alpha  occ. eigenvalues --   -0.58083  -0.56860  -0.55998  -0.55708  -0.55583
 Alpha  occ. eigenvalues --   -0.54535  -0.54250  -0.53328  -0.52846  -0.52538
 Alpha  occ. eigenvalues --   -0.52202  -0.51925  -0.50087  -0.48891  -0.48250
 Alpha  occ. eigenvalues --   -0.46467  -0.45584  -0.44893  -0.44140  -0.41638
 Alpha  occ. eigenvalues --   -0.40903  -0.40852  -0.38642
 Alpha virt. eigenvalues --   -0.11166  -0.10563  -0.10041  -0.08629  -0.07673
 Alpha virt. eigenvalues --   -0.06556  -0.05186  -0.03599  -0.01744  -0.01438
 Alpha virt. eigenvalues --   -0.00813   0.00348   0.00847   0.02105   0.02366

  Beta  occ. eigenvalues --  -19.00788 -18.99895 -14.31018 -10.18482 -10.17898
  Beta  occ. eigenvalues --  -10.17647 -10.17431 -10.16948 -10.13338 -10.13106
  Beta  occ. eigenvalues --  -10.12989 -10.12709 -10.12703 -10.12425 -10.12184
  Beta  occ. eigenvalues --  -10.12123 -10.12069 -10.12007 -10.11770 -10.11692
  Beta  occ. eigenvalues --  -10.11688 -10.09998 -10.08434 -10.08431 -10.07819
  Beta  occ. eigenvalues --  -10.07802 -10.07759  -1.20294  -1.19694  -1.15409
  Beta  occ. eigenvalues --   -1.03042  -1.02738  -1.00882  -0.98384  -0.94000
  Beta  occ. eigenvalues --   -0.93253  -0.92160  -0.91398  -0.91155  -0.89243
  Beta  occ. eigenvalues --   -0.87347  -0.86366  -0.81644  -0.81489  -0.79670
  Beta  occ. eigenvalues --   -0.78485  -0.77706  -0.76584  -0.74003  -0.73438
  Beta  occ. eigenvalues --   -0.73111  -0.72482  -0.72008  -0.68047  -0.67565
  Beta  occ. eigenvalues --   -0.66760  -0.66710  -0.64399  -0.64318  -0.63243
  Beta  occ. eigenvalues --   -0.62376  -0.61042  -0.60882  -0.60584  -0.60104
  Beta  occ. eigenvalues --   -0.59685  -0.59272  -0.59132  -0.58844  -0.58416
  Beta  occ. eigenvalues --   -0.57501  -0.56614  -0.55931  -0.55578  -0.55461
  Beta  occ. eigenvalues --   -0.54180  -0.53989  -0.52856  -0.52736  -0.52321
  Beta  occ. eigenvalues --   -0.52120  -0.51843  -0.48970  -0.48849  -0.48112
  Beta  occ. eigenvalues --   -0.45829  -0.44951  -0.44523  -0.42851  -0.40844
  Beta  occ. eigenvalues --   -0.40811  -0.39674
  Beta virt. eigenvalues --   -0.23862  -0.10512  -0.10245  -0.09461  -0.08174
  Beta virt. eigenvalues --   -0.07182  -0.05802  -0.05104  -0.03084  -0.01702
  Beta virt. eigenvalues --   -0.01405  -0.00740   0.00422   0.00920   0.02155

 Mulliken charges and spin densities:
               1          2
     1  C   -0.086719  -0.012747
     2  C   -0.107808   0.028894
     3  C   -0.126388   0.025561
     4  C   -0.086965  -0.012772
     5  C    0.024954  -0.018876
     6  C   -0.126326   0.025755
     7  H    0.133336  -0.001486
     8  H    0.139674  -0.001361
     9  H    0.127126   0.000629
    10  H    0.139456  -0.001338
    11  C    0.015535   0.141386
    12  C   -0.137831  -0.054381
    13  C   -0.141576  -0.055507
    14  C   -0.081944   0.095740
    15  C   -0.109489   0.097380
    16  C   -0.029976   0.000447
    17  H    0.161235   0.002482
    18  H    0.159964   0.002436
    19  H    0.167973  -0.004156
    20  H    0.184009  -0.004144
    21  H    0.127255   0.000632
    22  N    0.089049   0.352448
    23  C    0.031710  -0.025811
    24  C   -0.175981   0.085398
    25  C   -0.154920   0.123163
    26  C    0.055473  -0.053193
    27  C   -0.113928  -0.066207
    28  C   -0.097892   0.152890
    29  H    0.186628  -0.003674
    30  H    0.188304  -0.005159
    31  H    0.143829   0.002977
    32  H    0.146231  -0.007873
    33  C   -0.232008   0.012382
    34  C   -0.017115   0.065934
    35  C    0.008679   0.058825
    36  C   -0.160166  -0.024953
    37  C   -0.197218  -0.027174
    38  C    0.141308   0.082274
    39  H    0.165365  -0.003160
    40  H    0.162237  -0.002624
    41  H    0.148543   0.001275
    42  H    0.160954   0.001619
    43  O   -0.193332   0.031615
    44  H    0.288344  -0.000776
    45  O   -0.207011  -0.004907
    46  H    0.287424   0.000140
 Sum of Mulliken charges =   1.00000   1.00000

 Dipole moment (field-independent basis, Debye):
    X=              4.3373    Y=             -1.4427    Z=             -1.7715  Tot=              4.9022
 Quadrupole moment (field-independent basis, Debye-Ang):
   XX=            -68.0460   YY=           -109.7367   ZZ=           -143.1256
   XY=             -4.1594   XZ=             -9.6085   YZ=             -5.9368

 Normal termination of Gaussian 16 at Sun Jan 17 21:40:28 2021.
