 Gaussian 16, Revision A.03,
 Gaussian 16:  EM64L-G16RevA.03 25-Dec-2016

 ----------------------------------------------------------------------
 #P LC-wHPBE/TZVP iop(3/107=0181600000, 3/108=0181600000) scf=(conver=6
 ,fermi,ndamp=35,noincfock,novaracc,vshift=500,xqc)
 ----------------------------------------------------------------------

 -------------
 H19 C24 N1 O2
 -------------
 Symbolic Z-matrix:
 Charge =  0 Multiplicity = 1

                         Standard orientation:
 ---------------------------------------------------------------------
 Center     Atomic      Atomic             Coordinates (Angstroms)
 Number     Number       Type             X           Y           Z
 ---------------------------------------------------------------------
      1          6           0       -6.538108   -0.217341    1.255514
      2          6           0       -7.258661    0.087287    0.107878
      3          6           0       -5.151390   -0.259049    1.219222
      4          6           0       -6.580697    0.348691   -1.075777
      5          6           0       -4.458004    0.000662    0.035726
      6          6           0       -5.193998    0.304569   -1.110911
      7          1           0       -8.345644    0.121015    0.135956
      8          1           0       -4.593910   -0.476283    2.128350
      9          1           0       -7.136138    0.581164   -1.982188
     10          1           0       -4.671509    0.488761   -2.047704
     11          6           0       -2.974479   -0.044963   -0.002770
     12          6           0       -2.240322    0.918366   -0.694597
     13          6           0       -2.265576   -1.051297    0.654611
     14          6           0       -0.856277    0.875925   -0.739808
     15          6           0       -0.881570   -1.094369    0.628888
     16          6           0       -0.155643   -0.133238   -0.077397
     17          1           0       -2.762026    1.727417   -1.202285
     18          1           0       -2.809037   -1.823891    1.195264
     19          1           0       -0.306381    1.639189   -1.284917
     20          1           0       -0.352632   -1.885069    1.155020
     21          1           0       -7.059465   -0.416189    2.189743
     22          7           0        1.257026   -0.160831   -0.103806
     23          6           0        1.965402   -1.377887   -0.174570
     24          6           0        3.190004   -1.508547    0.478017
     25          6           0        1.461496   -2.456008   -0.912094
     26          6           0        3.903051   -2.696891    0.390217
     27          6           0        2.178621   -3.638306   -0.974610
     28          6           0        3.402953   -3.775056   -0.332839
     29          1           0        3.600761   -0.690157    1.062074
     30          1           0        0.514840   -2.358097   -1.435231
     31          1           0        1.782807   -4.471654   -1.551437
     32          1           0        3.963923   -4.706428   -0.398055
     33          6           0        1.972861    1.068372   -0.045814
     34          6           0        2.971482    1.350948   -0.972341
     35          6           0        1.683086    2.012203    0.939258
     36          6           0        3.676780    2.543988   -0.910119
     37          6           0        2.365608    3.214996    0.992156
     38          6           0        3.371443    3.483300    0.069272
     39          1           0        3.205268    0.621566   -1.744392
     40          1           0        0.904271    1.798314    1.667748
     41          1           0        4.460878    2.747602   -1.639197
     42          1           0        2.139895    3.954598    1.756001
     43          8           0        4.022986    4.680331    0.173244
     44          1           0        4.695287    4.738350   -0.517835
     45          8           0        5.097214   -2.751708    1.053752
     46          1           0        5.479651   -3.631493    0.941087
 ---------------------------------------------------------------------

 SCF Done:  E(RLC-wHPBE) =  -1130.49279414     A.U. after   14 cycles

 The electronic state is 1-A.
 Alpha  occ. eigenvalues --  -18.88685 -18.88321 -14.12023 -10.05161 -10.04878
 Alpha  occ. eigenvalues --  -10.03184 -10.02922 -10.02525  -9.99856  -9.99607
 Alpha  occ. eigenvalues --   -9.99522  -9.99461  -9.99363  -9.99203  -9.98964
 Alpha  occ. eigenvalues --   -9.98886  -9.98875  -9.98810  -9.98806  -9.98693
 Alpha  occ. eigenvalues --   -9.98692  -9.98677  -9.98625  -9.98619  -9.98485
 Alpha  occ. eigenvalues --   -9.98005  -9.97942  -1.08405  -1.08053  -0.99477
 Alpha  occ. eigenvalues --   -0.90062  -0.89196  -0.88444  -0.87025  -0.81369
 Alpha  occ. eigenvalues --   -0.79557  -0.79193  -0.78423  -0.78269  -0.77731
 Alpha  occ. eigenvalues --   -0.76882  -0.74134  -0.68601  -0.68104  -0.66701
 Alpha  occ. eigenvalues --   -0.65934  -0.65082  -0.64076  -0.63612  -0.62306
 Alpha  occ. eigenvalues --   -0.60316  -0.59612  -0.58647  -0.57139  -0.54762
 Alpha  occ. eigenvalues --   -0.53668  -0.53472  -0.52377  -0.51568  -0.51052
 Alpha  occ. eigenvalues --   -0.49684  -0.49197  -0.48822  -0.48332  -0.48062
 Alpha  occ. eigenvalues --   -0.47754  -0.47282  -0.46896  -0.46708  -0.46456
 Alpha  occ. eigenvalues --   -0.45942  -0.44575  -0.44024  -0.43700  -0.42714
 Alpha  occ. eigenvalues --   -0.42555  -0.41965  -0.40971  -0.40274  -0.40072
 Alpha  occ. eigenvalues --   -0.39573  -0.39376  -0.38846  -0.38361  -0.36292
 Alpha  occ. eigenvalues --   -0.33589  -0.32549  -0.31730  -0.31665  -0.30852
 Alpha  occ. eigenvalues --   -0.29430  -0.28568  -0.23887
 Alpha virt. eigenvalues --    0.01416   0.02404   0.03413   0.04040   0.04457
 Alpha virt. eigenvalues --    0.05338   0.05744   0.08176   0.08474   0.08674
 Alpha virt. eigenvalues --    0.10632   0.11209   0.11700   0.12196   0.12980

 Mulliken charges:
               1
     1  C   -0.086300
     2  C   -0.121868
     3  C   -0.133090
     4  C   -0.086516
     5  C   -0.001913
     6  C   -0.133287
     7  H    0.103903
     8  H    0.126643
     9  H    0.100953
    10  H    0.126319
    11  C    0.037581
    12  C   -0.153160
    13  C   -0.157061
    14  C   -0.108648
    15  C   -0.131179
    16  C   -0.017499
    17  H    0.122003
    18  H    0.120799
    19  H    0.137708
    20  H    0.151724
    21  H    0.101099
    22  N   -0.003084
    23  C    0.050517
    24  C   -0.206951
    25  C   -0.181622
    26  C    0.066081
    27  C   -0.116798
    28  C   -0.152764
    29  H    0.155020
    30  H    0.155812
    31  H    0.100458
    32  H    0.098764
    33  C   -0.212413
    34  C   -0.033247
    35  C   -0.007729
    36  C   -0.181467
    37  C   -0.212210
    38  C    0.129871
    39  H    0.134420
    40  H    0.131654
    41  H    0.106923
    42  H    0.117554
    43  O   -0.239328
    44  H    0.268927
    45  O   -0.235384
    46  H    0.268787
 Sum of Mulliken charges =  -0.00000

 Dipole moment (field-independent basis, Debye):
    X=              1.3751    Y=             -0.9865    Z=             -1.4393  Tot=              2.2217
 Quadrupole moment (field-independent basis, Debye-Ang):
   XX=           -138.1061   YY=           -146.2332   ZZ=           -152.3613
   XY=             -3.4882   XZ=             -8.5343   YZ=             -6.7996

 Normal termination of Gaussian 16 at Sun Jan 17 21:17:54 2021.
