 Gaussian 16, Revision A.03,
 Gaussian 16:  EM64L-G16RevA.03 25-Dec-2016

 ----------------------------------------------------------------------
 #P LC-wHPBE/TZVP iop(3/107=0191200000, 3/108=0191200000) scf=(conver=6
 ,fermi,ndamp=35,noincfock,novaracc,vshift=500,xqc)
 ----------------------------------------------------------------------

 -------------
 H19 C24 N1 O2
 -------------
 Symbolic Z-matrix:
 Charge =  0 Multiplicity = 1

                         Standard orientation:
 ---------------------------------------------------------------------
 Center     Atomic      Atomic             Coordinates (Angstroms)
 Number     Number       Type             X           Y           Z
 ---------------------------------------------------------------------
      1          6           0       -6.538108   -0.217341    1.255514
      2          6           0       -7.258661    0.087287    0.107878
      3          6           0       -5.151390   -0.259049    1.219222
      4          6           0       -6.580697    0.348691   -1.075777
      5          6           0       -4.458004    0.000662    0.035726
      6          6           0       -5.193998    0.304569   -1.110911
      7          1           0       -8.345644    0.121015    0.135956
      8          1           0       -4.593910   -0.476283    2.128350
      9          1           0       -7.136138    0.581164   -1.982188
     10          1           0       -4.671509    0.488761   -2.047704
     11          6           0       -2.974479   -0.044963   -0.002770
     12          6           0       -2.240322    0.918366   -0.694597
     13          6           0       -2.265576   -1.051297    0.654611
     14          6           0       -0.856277    0.875925   -0.739808
     15          6           0       -0.881570   -1.094369    0.628888
     16          6           0       -0.155643   -0.133238   -0.077397
     17          1           0       -2.762026    1.727417   -1.202285
     18          1           0       -2.809037   -1.823891    1.195264
     19          1           0       -0.306381    1.639189   -1.284917
     20          1           0       -0.352632   -1.885069    1.155020
     21          1           0       -7.059465   -0.416189    2.189743
     22          7           0        1.257026   -0.160831   -0.103806
     23          6           0        1.965402   -1.377887   -0.174570
     24          6           0        3.190004   -1.508547    0.478017
     25          6           0        1.461496   -2.456008   -0.912094
     26          6           0        3.903051   -2.696891    0.390217
     27          6           0        2.178621   -3.638306   -0.974610
     28          6           0        3.402953   -3.775056   -0.332839
     29          1           0        3.600761   -0.690157    1.062074
     30          1           0        0.514840   -2.358097   -1.435231
     31          1           0        1.782807   -4.471654   -1.551437
     32          1           0        3.963923   -4.706428   -0.398055
     33          6           0        1.972861    1.068372   -0.045814
     34          6           0        2.971482    1.350948   -0.972341
     35          6           0        1.683086    2.012203    0.939258
     36          6           0        3.676780    2.543988   -0.910119
     37          6           0        2.365608    3.214996    0.992156
     38          6           0        3.371443    3.483300    0.069272
     39          1           0        3.205268    0.621566   -1.744392
     40          1           0        0.904271    1.798314    1.667748
     41          1           0        4.460878    2.747602   -1.639197
     42          1           0        2.139895    3.954598    1.756001
     43          8           0        4.022986    4.680331    0.173244
     44          1           0        4.695287    4.738350   -0.517835
     45          8           0        5.097214   -2.751708    1.053752
     46          1           0        5.479651   -3.631493    0.941087
 ---------------------------------------------------------------------

 SCF Done:  E(RLC-wHPBE) =  -1130.50690322     A.U. after   14 cycles

 The electronic state is 1-A.
 Alpha  occ. eigenvalues --  -18.89190 -18.88831 -14.12526 -10.05711 -10.05435
 Alpha  occ. eigenvalues --  -10.03742 -10.03474 -10.03069 -10.00403 -10.00147
 Alpha  occ. eigenvalues --  -10.00066 -10.00008  -9.99906  -9.99756  -9.99501
 Alpha  occ. eigenvalues --   -9.99433  -9.99421  -9.99355  -9.99351  -9.99238
 Alpha  occ. eigenvalues --   -9.99237  -9.99222  -9.99166  -9.99160  -9.99028
 Alpha  occ. eigenvalues --   -9.98544  -9.98482  -1.08942  -1.08594  -1.00038
 Alpha  occ. eigenvalues --   -0.90642  -0.89769  -0.89019  -0.87594  -0.81928
 Alpha  occ. eigenvalues --   -0.80107  -0.79742  -0.78975  -0.78818  -0.78280
 Alpha  occ. eigenvalues --   -0.77422  -0.74664  -0.69107  -0.68606  -0.67206
 Alpha  occ. eigenvalues --   -0.66443  -0.65577  -0.64571  -0.64109  -0.62793
 Alpha  occ. eigenvalues --   -0.60791  -0.60074  -0.59119  -0.57612  -0.55227
 Alpha  occ. eigenvalues --   -0.54123  -0.53918  -0.52832  -0.52015  -0.51494
 Alpha  occ. eigenvalues --   -0.50121  -0.49636  -0.49263  -0.48767  -0.48497
 Alpha  occ. eigenvalues --   -0.48181  -0.47717  -0.47346  -0.47161  -0.46893
 Alpha  occ. eigenvalues --   -0.46358  -0.45014  -0.44455  -0.44114  -0.43114
 Alpha  occ. eigenvalues --   -0.42998  -0.42361  -0.41393  -0.40688  -0.40478
 Alpha  occ. eigenvalues --   -0.39960  -0.39763  -0.39226  -0.38740  -0.36676
 Alpha  occ. eigenvalues --   -0.33925  -0.32871  -0.32050  -0.31980  -0.31169
 Alpha  occ. eigenvalues --   -0.29722  -0.28877  -0.24141
 Alpha virt. eigenvalues --    0.01635   0.02644   0.03650   0.04291   0.04716
 Alpha virt. eigenvalues --    0.05591   0.06000   0.08438   0.08733   0.08947
 Alpha virt. eigenvalues --    0.10875   0.11455   0.11952   0.12441   0.13218

 Mulliken charges:
               1
     1  C   -0.086897
     2  C   -0.123074
     3  C   -0.134436
     4  C   -0.087112
     5  C   -0.001149
     6  C   -0.134646
     7  H    0.104778
     8  H    0.127696
     9  H    0.101848
    10  H    0.127369
    11  C    0.036566
    12  C   -0.154187
    13  C   -0.158116
    14  C   -0.108985
    15  C   -0.131053
    16  C   -0.018336
    17  H    0.123132
    18  H    0.121921
    19  H    0.138985
    20  H    0.152952
    21  H    0.101995
    22  N   -0.006010
    23  C    0.051047
    24  C   -0.207722
    25  C   -0.182787
    26  C    0.066190
    27  C   -0.117159
    28  C   -0.154526
    29  H    0.156365
    30  H    0.156992
    31  H    0.101404
    32  H    0.099738
    33  C   -0.212857
    34  C   -0.033386
    35  C   -0.007606
    36  C   -0.182721
    37  C   -0.213371
    38  C    0.129522
    39  H    0.135599
    40  H    0.132839
    41  H    0.107870
    42  H    0.118534
    43  O   -0.239474
    44  H    0.268962
    45  O   -0.235531
    46  H    0.268841
 Sum of Mulliken charges =  -0.00000

 Dipole moment (field-independent basis, Debye):
    X=              1.3565    Y=             -0.9985    Z=             -1.4455  Tot=              2.2196
 Quadrupole moment (field-independent basis, Debye-Ang):
   XX=           -138.0656   YY=           -146.2127   ZZ=           -152.3009
   XY=             -3.5248   XZ=             -8.5679   YZ=             -6.8026

 Normal termination of Gaussian 16 at Sun Jan 17 20:44:26 2021.
