 Gaussian 16, Revision A.03,
 Gaussian 16:  EM64L-G16RevA.03 25-Dec-2016

 ----------------------------------------------------------------------
 #P LC-wHPBE/TZVP iop(3/107=0221900000, 3/108=0221900000) scf=(conver=6
 ,fermi,ndamp=35,noincfock,novaracc,vshift=500,xqc)
 ----------------------------------------------------------------------

 -------------
 H19 C24 N1 O2
 -------------
 Symbolic Z-matrix:
 Charge =  0 Multiplicity = 1

                         Standard orientation:
 ---------------------------------------------------------------------
 Center     Atomic      Atomic             Coordinates (Angstroms)
 Number     Number       Type             X           Y           Z
 ---------------------------------------------------------------------
      1          6           0       -6.538108   -0.217341    1.255514
      2          6           0       -7.258661    0.087287    0.107878
      3          6           0       -5.151390   -0.259049    1.219222
      4          6           0       -6.580697    0.348691   -1.075777
      5          6           0       -4.458004    0.000662    0.035726
      6          6           0       -5.193998    0.304569   -1.110911
      7          1           0       -8.345644    0.121015    0.135956
      8          1           0       -4.593910   -0.476283    2.128350
      9          1           0       -7.136138    0.581164   -1.982188
     10          1           0       -4.671509    0.488761   -2.047704
     11          6           0       -2.974479   -0.044963   -0.002770
     12          6           0       -2.240322    0.918366   -0.694597
     13          6           0       -2.265576   -1.051297    0.654611
     14          6           0       -0.856277    0.875925   -0.739808
     15          6           0       -0.881570   -1.094369    0.628888
     16          6           0       -0.155643   -0.133238   -0.077397
     17          1           0       -2.762026    1.727417   -1.202285
     18          1           0       -2.809037   -1.823891    1.195264
     19          1           0       -0.306381    1.639189   -1.284917
     20          1           0       -0.352632   -1.885069    1.155020
     21          1           0       -7.059465   -0.416189    2.189743
     22          7           0        1.257026   -0.160831   -0.103806
     23          6           0        1.965402   -1.377887   -0.174570
     24          6           0        3.190004   -1.508547    0.478017
     25          6           0        1.461496   -2.456008   -0.912094
     26          6           0        3.903051   -2.696891    0.390217
     27          6           0        2.178621   -3.638306   -0.974610
     28          6           0        3.402953   -3.775056   -0.332839
     29          1           0        3.600761   -0.690157    1.062074
     30          1           0        0.514840   -2.358097   -1.435231
     31          1           0        1.782807   -4.471654   -1.551437
     32          1           0        3.963923   -4.706428   -0.398055
     33          6           0        1.972861    1.068372   -0.045814
     34          6           0        2.971482    1.350948   -0.972341
     35          6           0        1.683086    2.012203    0.939258
     36          6           0        3.676780    2.543988   -0.910119
     37          6           0        2.365608    3.214996    0.992156
     38          6           0        3.371443    3.483300    0.069272
     39          1           0        3.205268    0.621566   -1.744392
     40          1           0        0.904271    1.798314    1.667748
     41          1           0        4.460878    2.747602   -1.639197
     42          1           0        2.139895    3.954598    1.756001
     43          8           0        4.022986    4.680331    0.173244
     44          1           0        4.695287    4.738350   -0.517835
     45          8           0        5.097214   -2.751708    1.053752
     46          1           0        5.479651   -3.631493    0.941087
 ---------------------------------------------------------------------

 SCF Done:  E(RLC-wHPBE) =  -1130.55065603     A.U. after   14 cycles

 The electronic state is 1-A.
 Alpha  occ. eigenvalues --  -18.90794 -18.90453 -14.14139 -10.07476 -10.07221
 Alpha  occ. eigenvalues --  -10.05533 -10.05241 -10.04813 -10.02152 -10.01875
 Alpha  occ. eigenvalues --  -10.01808 -10.01755 -10.01647 -10.01525 -10.01222
 Alpha  occ. eigenvalues --  -10.01181 -10.01168 -10.01095 -10.01091 -10.00979
 Alpha  occ. eigenvalues --  -10.00977 -10.00962 -10.00900 -10.00892 -10.00762
 Alpha  occ. eigenvalues --  -10.00267 -10.00212  -1.10652  -1.10321  -1.01836
 Alpha  occ. eigenvalues --   -0.92498  -0.91599  -0.90856  -0.89405  -0.83700
 Alpha  occ. eigenvalues --   -0.81847  -0.81481  -0.80723  -0.80555  -0.80017
 Alpha  occ. eigenvalues --   -0.79123  -0.76330  -0.70686  -0.70172  -0.68780
 Alpha  occ. eigenvalues --   -0.68031  -0.67117  -0.66109  -0.65655  -0.64302
 Alpha  occ. eigenvalues --   -0.62255  -0.61496  -0.60570  -0.59066  -0.56656
 Alpha  occ. eigenvalues --   -0.55523  -0.55285  -0.54227  -0.53385  -0.52847
 Alpha  occ. eigenvalues --   -0.51455  -0.50982  -0.50611  -0.50098  -0.49828
 Alpha  occ. eigenvalues --   -0.49486  -0.49052  -0.48723  -0.48552  -0.48223
 Alpha  occ. eigenvalues --   -0.47624  -0.46360  -0.45765  -0.45373  -0.44375
 Alpha  occ. eigenvalues --   -0.44294  -0.43559  -0.42676  -0.41950  -0.41697
 Alpha  occ. eigenvalues --   -0.41133  -0.40938  -0.40376  -0.39884  -0.37823
 Alpha  occ. eigenvalues --   -0.34905  -0.33809  -0.32978  -0.32894  -0.32094
 Alpha  occ. eigenvalues --   -0.30567  -0.29779  -0.24886
 Alpha virt. eigenvalues --    0.02245   0.03309   0.04314   0.04992   0.05441
 Alpha virt. eigenvalues --    0.06300   0.06718   0.09183   0.09465   0.09713
 Alpha virt. eigenvalues --    0.11556   0.12145   0.12660   0.13129   0.13883

 Mulliken charges:
               1
     1  C   -0.089402
     2  C   -0.127583
     3  C   -0.139280
     4  C   -0.089611
     5  C    0.000574
     6  C   -0.139532
     7  H    0.108247
     8  H    0.131707
     9  H    0.105395
    10  H    0.131371
    11  C    0.032784
    12  C   -0.157398
    13  C   -0.161431
    14  C   -0.110600
    15  C   -0.131206
    16  C   -0.021707
    17  H    0.127442
    18  H    0.126200
    19  H    0.143753
    20  H    0.157532
    21  H    0.105543
    22  N   -0.015905
    23  C    0.051906
    24  C   -0.210130
    25  C   -0.187282
    26  C    0.066542
    27  C   -0.118437
    28  C   -0.160657
    29  H    0.161358
    30  H    0.161424
    31  H    0.105135
    32  H    0.103456
    33  C   -0.214757
    34  C   -0.034841
    35  C   -0.008293
    36  C   -0.186343
    37  C   -0.216551
    38  C    0.127736
    39  H    0.140092
    40  H    0.137340
    41  H    0.111524
    42  H    0.122411
    43  O   -0.240389
    44  H    0.269185
    45  O   -0.236448
    46  H    0.269127
 Sum of Mulliken charges =  -0.00000

 Dipole moment (field-independent basis, Debye):
    X=              1.2993    Y=             -1.0374    Z=             -1.4666  Tot=              2.2170
 Quadrupole moment (field-independent basis, Debye-Ang):
   XX=           -137.9421   YY=           -146.1445   ZZ=           -152.1052
   XY=             -3.6438   XZ=             -8.6817   YZ=             -6.8141

 Normal termination of Gaussian 16 at Sun Jan 17 17:51:06 2021.
