 Gaussian 16, Revision A.03,
 Gaussian 16:  EM64L-G16RevA.03 25-Dec-2016

 ----------------------------------------------------------------------
 #P LC-wHPBE/TZVP iop(3/107=0182300000, 3/108=0182300000) scf=(conver=6
 ,fermi,ndamp=35,noincfock,novaracc,vshift=500,xqc)
 ----------------------------------------------------------------------

 -------------
 H19 C24 N1 O2
 -------------
 Symbolic Z-matrix:
 Charge =  1 Multiplicity = 2

                         Standard orientation:
 ---------------------------------------------------------------------
 Center     Atomic      Atomic             Coordinates (Angstroms)
 Number     Number       Type             X           Y           Z
 ---------------------------------------------------------------------
      1          6           0       -6.538108   -0.217341    1.255514
      2          6           0       -7.258661    0.087287    0.107878
      3          6           0       -5.151390   -0.259049    1.219222
      4          6           0       -6.580697    0.348691   -1.075777
      5          6           0       -4.458004    0.000662    0.035726
      6          6           0       -5.193998    0.304569   -1.110911
      7          1           0       -8.345644    0.121015    0.135956
      8          1           0       -4.593910   -0.476283    2.128350
      9          1           0       -7.136138    0.581164   -1.982188
     10          1           0       -4.671509    0.488761   -2.047704
     11          6           0       -2.974479   -0.044963   -0.002770
     12          6           0       -2.240322    0.918366   -0.694597
     13          6           0       -2.265576   -1.051297    0.654611
     14          6           0       -0.856277    0.875925   -0.739808
     15          6           0       -0.881570   -1.094369    0.628888
     16          6           0       -0.155643   -0.133238   -0.077397
     17          1           0       -2.762026    1.727417   -1.202285
     18          1           0       -2.809037   -1.823891    1.195264
     19          1           0       -0.306381    1.639189   -1.284917
     20          1           0       -0.352632   -1.885069    1.155020
     21          1           0       -7.059465   -0.416189    2.189743
     22          7           0        1.257026   -0.160831   -0.103806
     23          6           0        1.965402   -1.377887   -0.174570
     24          6           0        3.190004   -1.508547    0.478017
     25          6           0        1.461496   -2.456008   -0.912094
     26          6           0        3.903051   -2.696891    0.390217
     27          6           0        2.178621   -3.638306   -0.974610
     28          6           0        3.402953   -3.775056   -0.332839
     29          1           0        3.600761   -0.690157    1.062074
     30          1           0        0.514840   -2.358097   -1.435231
     31          1           0        1.782807   -4.471654   -1.551437
     32          1           0        3.963923   -4.706428   -0.398055
     33          6           0        1.972861    1.068372   -0.045814
     34          6           0        2.971482    1.350948   -0.972341
     35          6           0        1.683086    2.012203    0.939258
     36          6           0        3.676780    2.543988   -0.910119
     37          6           0        2.365608    3.214996    0.992156
     38          6           0        3.371443    3.483300    0.069272
     39          1           0        3.205268    0.621566   -1.744392
     40          1           0        0.904271    1.798314    1.667748
     41          1           0        4.460878    2.747602   -1.639197
     42          1           0        2.139895    3.954598    1.756001
     43          8           0        4.022986    4.680331    0.173244
     44          1           0        4.695287    4.738350   -0.517835
     45          8           0        5.097214   -2.751708    1.053752
     46          1           0        5.479651   -3.631493    0.941087
 ---------------------------------------------------------------------

 SCF Done:  E(ULC-wHPBE) =  -1130.25483201     A.U. after   23 cycles

 The electronic state is 2-A.
 Alpha  occ. eigenvalues --  -19.00914 -18.99915 -14.31858 -10.18635 -10.17880
 Alpha  occ. eigenvalues --  -10.17626 -10.17450 -10.16985 -10.13480 -10.13241
 Alpha  occ. eigenvalues --  -10.13212 -10.12888 -10.12881 -10.12445 -10.12341
 Alpha  occ. eigenvalues --  -10.12299 -10.12171 -10.12141 -10.11785 -10.11679
 Alpha  occ. eigenvalues --  -10.11676 -10.10021 -10.08506 -10.08503 -10.07867
 Alpha  occ. eigenvalues --  -10.07827 -10.07808  -1.20495  -1.19704  -1.16470
 Alpha  occ. eigenvalues --   -1.03301  -1.02977  -1.01191  -0.98529  -0.94248
 Alpha  occ. eigenvalues --   -0.93507  -0.92317  -0.91592  -0.91357  -0.89601
 Alpha  occ. eigenvalues --   -0.87421  -0.86645  -0.81928  -0.81719  -0.79905
 Alpha  occ. eigenvalues --   -0.78696  -0.77866  -0.76751  -0.74128  -0.73578
 Alpha  occ. eigenvalues --   -0.73238  -0.72642  -0.72223  -0.68202  -0.67800
 Alpha  occ. eigenvalues --   -0.67205  -0.66911  -0.64633  -0.64473  -0.63386
 Alpha  occ. eigenvalues --   -0.62511  -0.61205  -0.61040  -0.60686  -0.60276
 Alpha  occ. eigenvalues --   -0.59916  -0.59624  -0.59347  -0.59030  -0.58522
 Alpha  occ. eigenvalues --   -0.58117  -0.56893  -0.56028  -0.55738  -0.55614
 Alpha  occ. eigenvalues --   -0.54568  -0.54279  -0.53359  -0.52877  -0.52569
 Alpha  occ. eigenvalues --   -0.52231  -0.51955  -0.50118  -0.48918  -0.48278
 Alpha  occ. eigenvalues --   -0.46492  -0.45609  -0.44918  -0.44165  -0.41662
 Alpha  occ. eigenvalues --   -0.40925  -0.40874  -0.38663
 Alpha virt. eigenvalues --   -0.11150  -0.10545  -0.10024  -0.08611  -0.07655
 Alpha virt. eigenvalues --   -0.06537  -0.05166  -0.03578  -0.01724  -0.01419
 Alpha virt. eigenvalues --   -0.00795   0.00366   0.00865   0.02122   0.02384

  Beta  occ. eigenvalues --  -19.00825 -18.99933 -14.31064 -10.18522 -10.17939
  Beta  occ. eigenvalues --  -10.17689 -10.17473 -10.16989 -10.13379 -10.13147
  Beta  occ. eigenvalues --  -10.13030 -10.12750 -10.12745 -10.12465 -10.12226
  Beta  occ. eigenvalues --  -10.12165 -10.12110 -10.12049 -10.11809 -10.11733
  Beta  occ. eigenvalues --  -10.11728 -10.10036 -10.08472 -10.08469 -10.07857
  Beta  occ. eigenvalues --  -10.07840 -10.07797  -1.20333  -1.19734  -1.15454
  Beta  occ. eigenvalues --   -1.03085  -1.02781  -1.00925  -0.98425  -0.94042
  Beta  occ. eigenvalues --   -0.93294  -0.92201  -0.91440  -0.91196  -0.89283
  Beta  occ. eigenvalues --   -0.87386  -0.86405  -0.81683  -0.81527  -0.79708
  Beta  occ. eigenvalues --   -0.78524  -0.77744  -0.76621  -0.74039  -0.73473
  Beta  occ. eigenvalues --   -0.73147  -0.72518  -0.72043  -0.68083  -0.67600
  Beta  occ. eigenvalues --   -0.66795  -0.66744  -0.64432  -0.64352  -0.63277
  Beta  occ. eigenvalues --   -0.62409  -0.61076  -0.60915  -0.60616  -0.60137
  Beta  occ. eigenvalues --   -0.59717  -0.59307  -0.59165  -0.58877  -0.58448
  Beta  occ. eigenvalues --   -0.57534  -0.56646  -0.55961  -0.55608  -0.55492
  Beta  occ. eigenvalues --   -0.54209  -0.54020  -0.52887  -0.52767  -0.52351
  Beta  occ. eigenvalues --   -0.52150  -0.51873  -0.48997  -0.48876  -0.48139
  Beta  occ. eigenvalues --   -0.45853  -0.44974  -0.44547  -0.42873  -0.40866
  Beta  occ. eigenvalues --   -0.40833  -0.39694
  Beta virt. eigenvalues --   -0.23854  -0.10495  -0.10227  -0.09443  -0.08154
  Beta virt. eigenvalues --   -0.07162  -0.05781  -0.05084  -0.03062  -0.01682
  Beta virt. eigenvalues --   -0.01386  -0.00722   0.00440   0.00938   0.02173

 Mulliken charges and spin densities:
               1          2
     1  C   -0.086769  -0.012775
     2  C   -0.107894   0.028883
     3  C   -0.126484   0.025581
     4  C   -0.087014  -0.012799
     5  C    0.025016  -0.018965
     6  C   -0.126423   0.025775
     7  H    0.133383  -0.001485
     8  H    0.139730  -0.001361
     9  H    0.127175   0.000630
    10  H    0.139512  -0.001338
    11  C    0.015451   0.141575
    12  C   -0.137911  -0.054601
    13  C   -0.141657  -0.055724
    14  C   -0.081942   0.095940
    15  C   -0.109461   0.097575
    16  C   -0.030077   0.000226
    17  H    0.161315   0.002491
    18  H    0.160043   0.002445
    19  H    0.168067  -0.004164
    20  H    0.184099  -0.004152
    21  H    0.127304   0.000633
    22  N    0.089033   0.352908
    23  C    0.031692  -0.026035
    24  C   -0.176005   0.085597
    25  C   -0.154971   0.123333
    26  C    0.055450  -0.053372
    27  C   -0.113980  -0.066401
    28  C   -0.097976   0.153044
    29  H    0.186729  -0.003682
    30  H    0.188392  -0.005166
    31  H    0.143892   0.002985
    32  H    0.146297  -0.007879
    33  C   -0.232092   0.012196
    34  C   -0.017101   0.066065
    35  C    0.008709   0.058951
    36  C   -0.160280  -0.025106
    37  C   -0.197322  -0.027323
    38  C    0.141308   0.082371
    39  H    0.165447  -0.003165
    40  H    0.162322  -0.002629
    41  H    0.148604   0.001281
    42  H    0.161016   0.001625
    43  O   -0.193361   0.031575
    44  H    0.288340  -0.000776
    45  O   -0.207027  -0.004930
    46  H    0.287424   0.000140
 Sum of Mulliken charges =   1.00000   1.00000

 Dipole moment (field-independent basis, Debye):
    X=              4.3388    Y=             -1.4445    Z=             -1.7721  Tot=              4.9043
 Quadrupole moment (field-independent basis, Debye-Ang):
   XX=            -68.0650   YY=           -109.7386   ZZ=           -143.1223
   XY=             -4.1647   XZ=             -9.6109   YZ=             -5.9367

 Normal termination of Gaussian 16 at Sun Jan 17 23:54:20 2021.
