 Gaussian 16, Revision A.03,
 Gaussian 16:  EM64L-G16RevA.03 25-Dec-2016

 ----------------------------------------------------------------------
 #P LC-wHPBE/TZVP iop(3/107=0182900000, 3/108=0182900000) scf=(conver=6
 ,fermi,ndamp=35,noincfock,novaracc,vshift=500,xqc)
 ----------------------------------------------------------------------

 -------------
 H19 C24 N1 O2
 -------------
 Symbolic Z-matrix:
 Charge =  1 Multiplicity = 2

                         Standard orientation:
 ---------------------------------------------------------------------
 Center     Atomic      Atomic             Coordinates (Angstroms)
 Number     Number       Type             X           Y           Z
 ---------------------------------------------------------------------
      1          6           0       -6.538108   -0.217341    1.255514
      2          6           0       -7.258661    0.087287    0.107878
      3          6           0       -5.151390   -0.259049    1.219222
      4          6           0       -6.580697    0.348691   -1.075777
      5          6           0       -4.458004    0.000662    0.035726
      6          6           0       -5.193998    0.304569   -1.110911
      7          1           0       -8.345644    0.121015    0.135956
      8          1           0       -4.593910   -0.476283    2.128350
      9          1           0       -7.136138    0.581164   -1.982188
     10          1           0       -4.671509    0.488761   -2.047704
     11          6           0       -2.974479   -0.044963   -0.002770
     12          6           0       -2.240322    0.918366   -0.694597
     13          6           0       -2.265576   -1.051297    0.654611
     14          6           0       -0.856277    0.875925   -0.739808
     15          6           0       -0.881570   -1.094369    0.628888
     16          6           0       -0.155643   -0.133238   -0.077397
     17          1           0       -2.762026    1.727417   -1.202285
     18          1           0       -2.809037   -1.823891    1.195264
     19          1           0       -0.306381    1.639189   -1.284917
     20          1           0       -0.352632   -1.885069    1.155020
     21          1           0       -7.059465   -0.416189    2.189743
     22          7           0        1.257026   -0.160831   -0.103806
     23          6           0        1.965402   -1.377887   -0.174570
     24          6           0        3.190004   -1.508547    0.478017
     25          6           0        1.461496   -2.456008   -0.912094
     26          6           0        3.903051   -2.696891    0.390217
     27          6           0        2.178621   -3.638306   -0.974610
     28          6           0        3.402953   -3.775056   -0.332839
     29          1           0        3.600761   -0.690157    1.062074
     30          1           0        0.514840   -2.358097   -1.435231
     31          1           0        1.782807   -4.471654   -1.551437
     32          1           0        3.963923   -4.706428   -0.398055
     33          6           0        1.972861    1.068372   -0.045814
     34          6           0        2.971482    1.350948   -0.972341
     35          6           0        1.683086    2.012203    0.939258
     36          6           0        3.676780    2.543988   -0.910119
     37          6           0        2.365608    3.214996    0.992156
     38          6           0        3.371443    3.483300    0.069272
     39          1           0        3.205268    0.621566   -1.744392
     40          1           0        0.904271    1.798314    1.667748
     41          1           0        4.460878    2.747602   -1.639197
     42          1           0        2.139895    3.954598    1.756001
     43          8           0        4.022986    4.680331    0.173244
     44          1           0        4.695287    4.738350   -0.517835
     45          8           0        5.097214   -2.751708    1.053752
     46          1           0        5.479651   -3.631493    0.941087
 ---------------------------------------------------------------------

 SCF Done:  E(ULC-wHPBE) =  -1130.25566813     A.U. after   23 cycles

 The electronic state is 2-A.
 Alpha  occ. eigenvalues --  -19.00945 -18.99948 -14.31898 -10.18670 -10.17915
 Alpha  occ. eigenvalues --  -10.17662 -10.17486 -10.17021 -10.13516 -10.13277
 Alpha  occ. eigenvalues --  -10.13248 -10.12924 -10.12917 -10.12479 -10.12376
 Alpha  occ. eigenvalues --  -10.12334 -10.12207 -10.12176 -10.11819 -10.11713
 Alpha  occ. eigenvalues --  -10.11710 -10.10054 -10.08538 -10.08535 -10.07900
 Alpha  occ. eigenvalues --  -10.07860 -10.07841  -1.20528  -1.19739  -1.16510
 Alpha  occ. eigenvalues --   -1.03338  -1.03014  -1.01228  -0.98564  -0.94284
 Alpha  occ. eigenvalues --   -0.93543  -0.92352  -0.91628  -0.91392  -0.89636
 Alpha  occ. eigenvalues --   -0.87454  -0.86679  -0.81962  -0.81752  -0.79937
 Alpha  occ. eigenvalues --   -0.78729  -0.77898  -0.76782  -0.74159  -0.73609
 Alpha  occ. eigenvalues --   -0.73269  -0.72673  -0.72253  -0.68232  -0.67830
 Alpha  occ. eigenvalues --   -0.67235  -0.66940  -0.64663  -0.64502  -0.63415
 Alpha  occ. eigenvalues --   -0.62539  -0.61234  -0.61068  -0.60714  -0.60305
 Alpha  occ. eigenvalues --   -0.59944  -0.59654  -0.59375  -0.59058  -0.58549
 Alpha  occ. eigenvalues --   -0.58146  -0.56921  -0.56054  -0.55765  -0.55641
 Alpha  occ. eigenvalues --   -0.54595  -0.54305  -0.53387  -0.52904  -0.52596
 Alpha  occ. eigenvalues --   -0.52257  -0.51981  -0.50144  -0.48941  -0.48301
 Alpha  occ. eigenvalues --   -0.46514  -0.45631  -0.44939  -0.44187  -0.41683
 Alpha  occ. eigenvalues --   -0.40943  -0.40893  -0.38682
 Alpha virt. eigenvalues --   -0.11137  -0.10530  -0.10009  -0.08595  -0.07639
 Alpha virt. eigenvalues --   -0.06521  -0.05149  -0.03561  -0.01708  -0.01403
 Alpha virt. eigenvalues --   -0.00779   0.00382   0.00881   0.02137   0.02399

  Beta  occ. eigenvalues --  -19.00856 -18.99965 -14.31103 -10.18557 -10.17975
  Beta  occ. eigenvalues --  -10.17726 -10.17509 -10.17025 -10.13415 -10.13183
  Beta  occ. eigenvalues --  -10.13065 -10.12786 -10.12781 -10.12499 -10.12261
  Beta  occ. eigenvalues --  -10.12200 -10.12145 -10.12084 -10.11843 -10.11767
  Beta  occ. eigenvalues --  -10.11763 -10.10069 -10.08505 -10.08502 -10.07889
  Beta  occ. eigenvalues --  -10.07873 -10.07830  -1.20366  -1.19768  -1.15493
  Beta  occ. eigenvalues --   -1.03122  -1.02818  -1.00961  -0.98460  -0.94078
  Beta  occ. eigenvalues --   -0.93330  -0.92236  -0.91476  -0.91232  -0.89317
  Beta  occ. eigenvalues --   -0.87419  -0.86438  -0.81716  -0.81560  -0.79741
  Beta  occ. eigenvalues --   -0.78556  -0.77776  -0.76652  -0.74070  -0.73504
  Beta  occ. eigenvalues --   -0.73178  -0.72548  -0.72072  -0.68113  -0.67630
  Beta  occ. eigenvalues --   -0.66825  -0.66773  -0.64461  -0.64381  -0.63306
  Beta  occ. eigenvalues --   -0.62437  -0.61105  -0.60943  -0.60644  -0.60166
  Beta  occ. eigenvalues --   -0.59745  -0.59336  -0.59192  -0.58905  -0.58475
  Beta  occ. eigenvalues --   -0.57563  -0.56673  -0.55987  -0.55634  -0.55518
  Beta  occ. eigenvalues --   -0.54235  -0.54047  -0.52913  -0.52793  -0.52377
  Beta  occ. eigenvalues --   -0.52175  -0.51898  -0.49020  -0.48899  -0.48162
  Beta  occ. eigenvalues --   -0.45874  -0.44994  -0.44567  -0.42891  -0.40885
  Beta  occ. eigenvalues --   -0.40852  -0.39711
  Beta virt. eigenvalues --   -0.23847  -0.10481  -0.10212  -0.09429  -0.08137
  Beta virt. eigenvalues --   -0.07146  -0.05764  -0.05067  -0.03043  -0.01665
  Beta virt. eigenvalues --   -0.01370  -0.00707   0.00456   0.00953   0.02188

 Mulliken charges and spin densities:
               1          2
     1  C   -0.086811  -0.012798
     2  C   -0.107969   0.028874
     3  C   -0.126566   0.025598
     4  C   -0.087057  -0.012823
     5  C    0.025069  -0.019042
     6  C   -0.126505   0.025792
     7  H    0.133423  -0.001484
     8  H    0.139779  -0.001361
     9  H    0.127217   0.000631
    10  H    0.139561  -0.001339
    11  C    0.015379   0.141738
    12  C   -0.137979  -0.054791
    13  C   -0.141726  -0.055909
    14  C   -0.081941   0.096113
    15  C   -0.109437   0.097743
    16  C   -0.030163   0.000036
    17  H    0.161383   0.002499
    18  H    0.160111   0.002453
    19  H    0.168149  -0.004171
    20  H    0.184176  -0.004158
    21  H    0.127346   0.000634
    22  N    0.089018   0.353301
    23  C    0.031676  -0.026227
    24  C   -0.176027   0.085768
    25  C   -0.155016   0.123479
    26  C    0.055430  -0.053526
    27  C   -0.114026  -0.066568
    28  C   -0.098049   0.153177
    29  H    0.186815  -0.003688
    30  H    0.188468  -0.005171
    31  H    0.143947   0.002992
    32  H    0.146353  -0.007884
    33  C   -0.232165   0.012036
    34  C   -0.017091   0.066176
    35  C    0.008733   0.059058
    36  C   -0.160378  -0.025237
    37  C   -0.197410  -0.027451
    38  C    0.141308   0.082455
    39  H    0.165518  -0.003169
    40  H    0.162395  -0.002633
    41  H    0.148656   0.001287
    42  H    0.161069   0.001630
    43  O   -0.193386   0.031541
    44  H    0.288336  -0.000775
    45  O   -0.207041  -0.004949
    46  H    0.287424   0.000141
 Sum of Mulliken charges =   1.00000   1.00000

 Dipole moment (field-independent basis, Debye):
    X=              4.3400    Y=             -1.4460    Z=             -1.7726  Tot=              4.9060
 Quadrupole moment (field-independent basis, Debye-Ang):
   XX=            -68.0811   YY=           -109.7402   ZZ=           -143.1195
   XY=             -4.1693   XZ=             -9.6130   YZ=             -5.9367

 Normal termination of Gaussian 16 at Sun Jan 17 23:20:50 2021.
