 Gaussian 16, Revision A.03,
 Gaussian 16:  EM64L-G16RevA.03 25-Dec-2016

 ----------------------------------------------------------------------
 #P LC-wHPBE/TZVP iop(3/107=0182900000, 3/108=0182900000) scf=(conver=6
 ,fermi,ndamp=35,noincfock,novaracc,vshift=500,xqc)
 ----------------------------------------------------------------------

 -------------
 H19 C24 N1 O2
 -------------
 Symbolic Z-matrix:
 Charge =  0 Multiplicity = 1

                         Standard orientation:
 ---------------------------------------------------------------------
 Center     Atomic      Atomic             Coordinates (Angstroms)
 Number     Number       Type             X           Y           Z
 ---------------------------------------------------------------------
      1          6           0       -6.538108   -0.217341    1.255514
      2          6           0       -7.258661    0.087287    0.107878
      3          6           0       -5.151390   -0.259049    1.219222
      4          6           0       -6.580697    0.348691   -1.075777
      5          6           0       -4.458004    0.000662    0.035726
      6          6           0       -5.193998    0.304569   -1.110911
      7          1           0       -8.345644    0.121015    0.135956
      8          1           0       -4.593910   -0.476283    2.128350
      9          1           0       -7.136138    0.581164   -1.982188
     10          1           0       -4.671509    0.488761   -2.047704
     11          6           0       -2.974479   -0.044963   -0.002770
     12          6           0       -2.240322    0.918366   -0.694597
     13          6           0       -2.265576   -1.051297    0.654611
     14          6           0       -0.856277    0.875925   -0.739808
     15          6           0       -0.881570   -1.094369    0.628888
     16          6           0       -0.155643   -0.133238   -0.077397
     17          1           0       -2.762026    1.727417   -1.202285
     18          1           0       -2.809037   -1.823891    1.195264
     19          1           0       -0.306381    1.639189   -1.284917
     20          1           0       -0.352632   -1.885069    1.155020
     21          1           0       -7.059465   -0.416189    2.189743
     22          7           0        1.257026   -0.160831   -0.103806
     23          6           0        1.965402   -1.377887   -0.174570
     24          6           0        3.190004   -1.508547    0.478017
     25          6           0        1.461496   -2.456008   -0.912094
     26          6           0        3.903051   -2.696891    0.390217
     27          6           0        2.178621   -3.638306   -0.974610
     28          6           0        3.402953   -3.775056   -0.332839
     29          1           0        3.600761   -0.690157    1.062074
     30          1           0        0.514840   -2.358097   -1.435231
     31          1           0        1.782807   -4.471654   -1.551437
     32          1           0        3.963923   -4.706428   -0.398055
     33          6           0        1.972861    1.068372   -0.045814
     34          6           0        2.971482    1.350948   -0.972341
     35          6           0        1.683086    2.012203    0.939258
     36          6           0        3.676780    2.543988   -0.910119
     37          6           0        2.365608    3.214996    0.992156
     38          6           0        3.371443    3.483300    0.069272
     39          1           0        3.205268    0.621566   -1.744392
     40          1           0        0.904271    1.798314    1.667748
     41          1           0        4.460878    2.747602   -1.639197
     42          1           0        2.139895    3.954598    1.756001
     43          8           0        4.022986    4.680331    0.173244
     44          1           0        4.695287    4.738350   -0.517835
     45          8           0        5.097214   -2.751708    1.053752
     46          1           0        5.479651   -3.631493    0.941087
 ---------------------------------------------------------------------

 SCF Done:  E(RLC-wHPBE) =  -1130.49471244     A.U. after   14 cycles

 The electronic state is 1-A.
 Alpha  occ. eigenvalues --  -18.88753 -18.88390 -14.12091 -10.05235 -10.04953
 Alpha  occ. eigenvalues --  -10.03259 -10.02997 -10.02599  -9.99930  -9.99681
 Alpha  occ. eigenvalues --   -9.99595  -9.99535  -9.99436  -9.99278  -9.99037
 Alpha  occ. eigenvalues --   -9.98960  -9.98949  -9.98884  -9.98880  -9.98767
 Alpha  occ. eigenvalues --   -9.98766  -9.98751  -9.98698  -9.98692  -9.98559
 Alpha  occ. eigenvalues --   -9.98078  -9.98015  -1.08478  -1.08126  -0.99553
 Alpha  occ. eigenvalues --   -0.90140  -0.89274  -0.88522  -0.87102  -0.81445
 Alpha  occ. eigenvalues --   -0.79632  -0.79268  -0.78498  -0.78344  -0.77805
 Alpha  occ. eigenvalues --   -0.76955  -0.74206  -0.68669  -0.68172  -0.66770
 Alpha  occ. eigenvalues --   -0.66004  -0.65150  -0.64144  -0.63679  -0.62373
 Alpha  occ. eigenvalues --   -0.60380  -0.59675  -0.58712  -0.57203  -0.54825
 Alpha  occ. eigenvalues --   -0.53730  -0.53533  -0.52439  -0.51629  -0.51113
 Alpha  occ. eigenvalues --   -0.49744  -0.49257  -0.48883  -0.48392  -0.48122
 Alpha  occ. eigenvalues --   -0.47812  -0.47341  -0.46957  -0.46770  -0.46516
 Alpha  occ. eigenvalues --   -0.45999  -0.44635  -0.44083  -0.43757  -0.42769
 Alpha  occ. eigenvalues --   -0.42616  -0.42019  -0.41029  -0.40330  -0.40128
 Alpha  occ. eigenvalues --   -0.39626  -0.39429  -0.38898  -0.38413  -0.36345
 Alpha  occ. eigenvalues --   -0.33635  -0.32594  -0.31774  -0.31709  -0.30896
 Alpha  occ. eigenvalues --   -0.29471  -0.28611  -0.23922
 Alpha virt. eigenvalues --    0.01446   0.02437   0.03446   0.04075   0.04493
 Alpha virt. eigenvalues --    0.05373   0.05779   0.08212   0.08510   0.08712
 Alpha virt. eigenvalues --    0.10666   0.11243   0.11735   0.12230   0.13013

 Mulliken charges:
               1
     1  C   -0.086376
     2  C   -0.122025
     3  C   -0.133267
     4  C   -0.086591
     5  C   -0.001804
     6  C   -0.133466
     7  H    0.104015
     8  H    0.126780
     9  H    0.101068
    10  H    0.126455
    11  C    0.037449
    12  C   -0.153299
    13  C   -0.157204
    14  C   -0.108689
    15  C   -0.131157
    16  C   -0.017606
    17  H    0.122149
    18  H    0.120944
    19  H    0.137874
    20  H    0.151884
    21  H    0.101214
    22  N   -0.003474
    23  C    0.050596
    24  C   -0.207055
    25  C   -0.181773
    26  C    0.066095
    27  C   -0.116846
    28  C   -0.152997
    29  H    0.155196
    30  H    0.155965
    31  H    0.100579
    32  H    0.098890
    33  C   -0.212469
    34  C   -0.033257
    35  C   -0.007703
    36  C   -0.181640
    37  C   -0.212372
    38  C    0.129830
    39  H    0.134573
    40  H    0.131807
    41  H    0.107045
    42  H    0.117680
    43  O   -0.239345
    44  H    0.268931
    45  O   -0.235400
    46  H    0.268793
 Sum of Mulliken charges =  -0.00000

 Dipole moment (field-independent basis, Debye):
    X=              1.3726    Y=             -0.9882    Z=             -1.4401  Tot=              2.2213
 Quadrupole moment (field-independent basis, Debye-Ang):
   XX=           -138.1005   YY=           -146.2305   ZZ=           -152.3532
   XY=             -3.4931   XZ=             -8.5388   YZ=             -6.8000

 Normal termination of Gaussian 16 at Sun Jan 17 22:58:16 2021.
