 Gaussian 16, Revision A.03,
 Gaussian 16:  EM64L-G16RevA.03 25-Dec-2016

 ----------------------------------------------------------------------
 #P LC-wHPBE/TZVP iop(3/107=0221900000, 3/108=0221900000) scf=(conver=6
 ,fermi,ndamp=35,noincfock,novaracc,vshift=500,xqc)
 ----------------------------------------------------------------------

 -------------
 H19 C24 N1 O2
 -------------
 Symbolic Z-matrix:
 Charge =  1 Multiplicity = 2

                         Standard orientation:
 ---------------------------------------------------------------------
 Center     Atomic      Atomic             Coordinates (Angstroms)
 Number     Number       Type             X           Y           Z
 ---------------------------------------------------------------------
      1          6           0       -6.538108   -0.217341    1.255514
      2          6           0       -7.258661    0.087287    0.107878
      3          6           0       -5.151390   -0.259049    1.219222
      4          6           0       -6.580697    0.348691   -1.075777
      5          6           0       -4.458004    0.000662    0.035726
      6          6           0       -5.193998    0.304569   -1.110911
      7          1           0       -8.345644    0.121015    0.135956
      8          1           0       -4.593910   -0.476283    2.128350
      9          1           0       -7.136138    0.581164   -1.982188
     10          1           0       -4.671509    0.488761   -2.047704
     11          6           0       -2.974479   -0.044963   -0.002770
     12          6           0       -2.240322    0.918366   -0.694597
     13          6           0       -2.265576   -1.051297    0.654611
     14          6           0       -0.856277    0.875925   -0.739808
     15          6           0       -0.881570   -1.094369    0.628888
     16          6           0       -0.155643   -0.133238   -0.077397
     17          1           0       -2.762026    1.727417   -1.202285
     18          1           0       -2.809037   -1.823891    1.195264
     19          1           0       -0.306381    1.639189   -1.284917
     20          1           0       -0.352632   -1.885069    1.155020
     21          1           0       -7.059465   -0.416189    2.189743
     22          7           0        1.257026   -0.160831   -0.103806
     23          6           0        1.965402   -1.377887   -0.174570
     24          6           0        3.190004   -1.508547    0.478017
     25          6           0        1.461496   -2.456008   -0.912094
     26          6           0        3.903051   -2.696891    0.390217
     27          6           0        2.178621   -3.638306   -0.974610
     28          6           0        3.402953   -3.775056   -0.332839
     29          1           0        3.600761   -0.690157    1.062074
     30          1           0        0.514840   -2.358097   -1.435231
     31          1           0        1.782807   -4.471654   -1.551437
     32          1           0        3.963923   -4.706428   -0.398055
     33          6           0        1.972861    1.068372   -0.045814
     34          6           0        2.971482    1.350948   -0.972341
     35          6           0        1.683086    2.012203    0.939258
     36          6           0        3.676780    2.543988   -0.910119
     37          6           0        2.365608    3.214996    0.992156
     38          6           0        3.371443    3.483300    0.069272
     39          1           0        3.205268    0.621566   -1.744392
     40          1           0        0.904271    1.798314    1.667748
     41          1           0        4.460878    2.747602   -1.639197
     42          1           0        2.139895    3.954598    1.756001
     43          8           0        4.022986    4.680331    0.173244
     44          1           0        4.695287    4.738350   -0.517835
     45          8           0        5.097214   -2.751708    1.053752
     46          1           0        5.479651   -3.631493    0.941087
 ---------------------------------------------------------------------

 SCF Done:  E(ULC-wHPBE) =  -1130.30855113     A.U. after   23 cycles

 The electronic state is 2-A.
 Alpha  occ. eigenvalues --  -19.02942 -19.02014 -14.34461 -10.20946 -10.20216
 Alpha  occ. eigenvalues --  -10.20008 -10.19804 -10.19292 -10.15821 -10.15574
 Alpha  occ. eigenvalues --  -10.15535 -10.15248 -10.15239 -10.14692 -10.14673
 Alpha  occ. eigenvalues --  -10.14614 -10.14528 -10.14456 -10.14006 -10.13946
 Alpha  occ. eigenvalues --  -10.13940 -10.12203 -10.10691 -10.10687 -10.10032
 Alpha  occ. eigenvalues --  -10.09996 -10.09975  -1.22678  -1.21950  -1.19071
 Alpha  occ. eigenvalues --   -1.05750  -1.05419  -1.03608  -1.00865  -0.96588
 Alpha  occ. eigenvalues --   -0.95828  -0.94613  -0.93915  -0.93667  -0.91854
 Alpha  occ. eigenvalues --   -0.89620  -0.88841  -0.84076  -0.83818  -0.82004
 Alpha  occ. eigenvalues --   -0.80813  -0.79940  -0.78754  -0.76113  -0.75543
 Alpha  occ. eigenvalues --   -0.75238  -0.74603  -0.74097  -0.70147  -0.69734
 Alpha  occ. eigenvalues --   -0.69139  -0.68750  -0.66477  -0.66306  -0.65227
 Alpha  occ. eigenvalues --   -0.64292  -0.63039  -0.62839  -0.62442  -0.62089
 Alpha  occ. eigenvalues --   -0.61690  -0.61468  -0.61125  -0.60780  -0.60255
 Alpha  occ. eigenvalues --   -0.59933  -0.58643  -0.57687  -0.57392  -0.57271
 Alpha  occ. eigenvalues --   -0.56290  -0.55877  -0.55063  -0.54565  -0.54231
 Alpha  occ. eigenvalues --   -0.53811  -0.53551  -0.51763  -0.50390  -0.49740
 Alpha  occ. eigenvalues --   -0.47826  -0.46901  -0.46190  -0.45479  -0.42916
 Alpha  occ. eigenvalues --   -0.42063  -0.42019  -0.39785
 Alpha virt. eigenvalues --   -0.10365  -0.09681  -0.09184  -0.07674  -0.06743
 Alpha virt. eigenvalues --   -0.05622  -0.04163  -0.02548  -0.00746  -0.00461
 Alpha virt. eigenvalues --    0.00130   0.01292   0.01766   0.02998   0.03265

  Beta  occ. eigenvalues --  -19.02856 -19.02035 -14.33616 -10.20827 -10.20288
  Beta  occ. eigenvalues --  -10.20089 -10.19845 -10.19310 -10.15711 -10.15471
  Beta  occ. eigenvalues --  -10.15341 -10.15097 -10.15089 -10.14702 -10.14555
  Beta  occ. eigenvalues --  -10.14502 -10.14416 -10.14392 -10.14039 -10.14014
  Beta  occ. eigenvalues --  -10.14007 -10.12223 -10.10655 -10.10652 -10.10026
  Beta  occ. eigenvalues --  -10.10011 -10.09961  -1.22519  -1.21989  -1.17995
  Beta  occ. eigenvalues --   -1.05528  -1.05222  -1.03325  -1.00757  -0.96378
  Beta  occ. eigenvalues --   -0.95614  -0.94496  -0.93756  -0.93499  -0.91508
  Beta  occ. eigenvalues --   -0.89585  -0.88584  -0.83815  -0.83616  -0.81795
  Beta  occ. eigenvalues --   -0.80635  -0.79818  -0.78620  -0.76024  -0.75434
  Beta  occ. eigenvalues --   -0.75145  -0.74466  -0.73916  -0.70017  -0.69499
  Beta  occ. eigenvalues --   -0.68692  -0.68571  -0.66252  -0.66186  -0.65111
  Beta  occ. eigenvalues --   -0.64186  -0.62897  -0.62690  -0.62372  -0.61927
  Beta  occ. eigenvalues --   -0.61474  -0.61147  -0.60920  -0.60617  -0.60158
  Beta  occ. eigenvalues --   -0.59316  -0.58347  -0.57610  -0.57245  -0.57144
  Beta  occ. eigenvalues --   -0.55810  -0.55693  -0.54528  -0.54430  -0.53975
  Beta  occ. eigenvalues --   -0.53735  -0.53461  -0.50396  -0.50347  -0.49578
  Beta  occ. eigenvalues --   -0.47112  -0.46196  -0.45757  -0.44003  -0.42002
  Beta  occ. eigenvalues --   -0.41965  -0.40729
  Beta virt. eigenvalues --   -0.23462  -0.09688  -0.09341  -0.08572  -0.07151
  Beta virt. eigenvalues --   -0.06190  -0.04749  -0.04079  -0.01942  -0.00700
  Beta virt. eigenvalues --   -0.00429   0.00197   0.01367   0.01839   0.03047

 Mulliken charges and spin densities:
               1          2
     1  C   -0.090265  -0.014796
     2  C   -0.113423   0.029352
     3  C   -0.132482   0.027362
     4  C   -0.090504  -0.014815
     5  C    0.027411  -0.024040
     6  C   -0.132444   0.027553
     7  H    0.136941  -0.001484
     8  H    0.143861  -0.001404
     9  H    0.130879   0.000713
    10  H    0.143632  -0.001380
    11  C    0.010433   0.153533
    12  C   -0.142376  -0.067992
    13  C   -0.146213  -0.068916
    14  C   -0.082460   0.107868
    15  C   -0.108475   0.109253
    16  C   -0.036708  -0.013030
    17  H    0.166601   0.003030
    18  H    0.165283   0.002980
    19  H    0.174196  -0.004607
    20  H    0.189914  -0.004583
    21  H    0.131009   0.000716
    22  N    0.087222   0.377419
    23  C    0.029525  -0.039752
    24  C   -0.177311   0.097456
    25  C   -0.158661   0.134216
    26  C    0.054078  -0.064606
    27  C   -0.117244  -0.078824
    28  C   -0.103118   0.163568
    29  H    0.193150  -0.004090
    30  H    0.194085  -0.005554
    31  H    0.148239   0.003492
    32  H    0.150665  -0.008278
    33  C   -0.237622   0.001144
    34  C   -0.017454   0.073737
    35  C    0.009133   0.066290
    36  C   -0.166312  -0.034146
    37  C   -0.202563  -0.036196
    38  C    0.140604   0.088584
    39  H    0.170948  -0.003460
    40  H    0.167900  -0.002886
    41  H    0.152758   0.001650
    42  H    0.165326   0.001973
    43  O   -0.195467   0.029689
    44  H    0.288267  -0.000742
    45  O   -0.208503  -0.006165
    46  H    0.287547   0.000168
 Sum of Mulliken charges =   1.00000   1.00000

 Dipole moment (field-independent basis, Debye):
    X=              4.3895    Y=             -1.5416    Z=             -1.8067  Tot=              4.9908
 Quadrupole moment (field-independent basis, Debye-Ang):
   XX=            -68.9791   YY=           -109.8501   ZZ=           -142.9340
   XY=             -4.4549   XZ=             -9.7567   YZ=             -5.9381

 Normal termination of Gaussian 16 at Sun Jan 17 18:15:03 2021.
