 Gaussian 16, Revision A.03,
 Gaussian 16:  EM64L-G16RevA.03 25-Dec-2016

 ----------------------------------------------------------------------
 #P LC-wHPBE/TZVP iop(3/107=0181900000, 3/108=0181900000) scf=(conver=6
 ,fermi,ndamp=35,noincfock,novaracc,vshift=500,xqc)
 ----------------------------------------------------------------------

 -------------
 H19 C24 N1 O2
 -------------
 Symbolic Z-matrix:
 Charge =  0 Multiplicity = 1

                         Standard orientation:
 ---------------------------------------------------------------------
 Center     Atomic      Atomic             Coordinates (Angstroms)
 Number     Number       Type             X           Y           Z
 ---------------------------------------------------------------------
      1          6           0       -6.538108   -0.217341    1.255514
      2          6           0       -7.258661    0.087287    0.107878
      3          6           0       -5.151390   -0.259049    1.219222
      4          6           0       -6.580697    0.348691   -1.075777
      5          6           0       -4.458004    0.000662    0.035726
      6          6           0       -5.193998    0.304569   -1.110911
      7          1           0       -8.345644    0.121015    0.135956
      8          1           0       -4.593910   -0.476283    2.128350
      9          1           0       -7.136138    0.581164   -1.982188
     10          1           0       -4.671509    0.488761   -2.047704
     11          6           0       -2.974479   -0.044963   -0.002770
     12          6           0       -2.240322    0.918366   -0.694597
     13          6           0       -2.265576   -1.051297    0.654611
     14          6           0       -0.856277    0.875925   -0.739808
     15          6           0       -0.881570   -1.094369    0.628888
     16          6           0       -0.155643   -0.133238   -0.077397
     17          1           0       -2.762026    1.727417   -1.202285
     18          1           0       -2.809037   -1.823891    1.195264
     19          1           0       -0.306381    1.639189   -1.284917
     20          1           0       -0.352632   -1.885069    1.155020
     21          1           0       -7.059465   -0.416189    2.189743
     22          7           0        1.257026   -0.160831   -0.103806
     23          6           0        1.965402   -1.377887   -0.174570
     24          6           0        3.190004   -1.508547    0.478017
     25          6           0        1.461496   -2.456008   -0.912094
     26          6           0        3.903051   -2.696891    0.390217
     27          6           0        2.178621   -3.638306   -0.974610
     28          6           0        3.402953   -3.775056   -0.332839
     29          1           0        3.600761   -0.690157    1.062074
     30          1           0        0.514840   -2.358097   -1.435231
     31          1           0        1.782807   -4.471654   -1.551437
     32          1           0        3.963923   -4.706428   -0.398055
     33          6           0        1.972861    1.068372   -0.045814
     34          6           0        2.971482    1.350948   -0.972341
     35          6           0        1.683086    2.012203    0.939258
     36          6           0        3.676780    2.543988   -0.910119
     37          6           0        2.365608    3.214996    0.992156
     38          6           0        3.371443    3.483300    0.069272
     39          1           0        3.205268    0.621566   -1.744392
     40          1           0        0.904271    1.798314    1.667748
     41          1           0        4.460878    2.747602   -1.639197
     42          1           0        2.139895    3.954598    1.756001
     43          8           0        4.022986    4.680331    0.173244
     44          1           0        4.695287    4.738350   -0.517835
     45          8           0        5.097214   -2.751708    1.053752
     46          1           0        5.479651   -3.631493    0.941087
 ---------------------------------------------------------------------

 SCF Done:  E(RLC-wHPBE) =  -1130.49323701     A.U. after   14 cycles

 The electronic state is 1-A.
 Alpha  occ. eigenvalues --  -18.88701 -18.88337 -14.12038 -10.05178 -10.04895
 Alpha  occ. eigenvalues --  -10.03201 -10.02939 -10.02542  -9.99873  -9.99624
 Alpha  occ. eigenvalues --   -9.99539  -9.99478  -9.99380  -9.99221  -9.98981
 Alpha  occ. eigenvalues --   -9.98903  -9.98892  -9.98827  -9.98823  -9.98710
 Alpha  occ. eigenvalues --   -9.98709  -9.98694  -9.98641  -9.98636  -9.98502
 Alpha  occ. eigenvalues --   -9.98022  -9.97959  -1.08422  -1.08070  -0.99495
 Alpha  occ. eigenvalues --   -0.90080  -0.89214  -0.88462  -0.87043  -0.81386
 Alpha  occ. eigenvalues --   -0.79574  -0.79210  -0.78440  -0.78286  -0.77748
 Alpha  occ. eigenvalues --   -0.76899  -0.74151  -0.68616  -0.68119  -0.66717
 Alpha  occ. eigenvalues --   -0.65950  -0.65098  -0.64092  -0.63627  -0.62322
 Alpha  occ. eigenvalues --   -0.60331  -0.59626  -0.58662  -0.57154  -0.54776
 Alpha  occ. eigenvalues --   -0.53683  -0.53486  -0.52391  -0.51582  -0.51066
 Alpha  occ. eigenvalues --   -0.49698  -0.49210  -0.48836  -0.48346  -0.48076
 Alpha  occ. eigenvalues --   -0.47767  -0.47296  -0.46910  -0.46723  -0.46470
 Alpha  occ. eigenvalues --   -0.45955  -0.44588  -0.44038  -0.43713  -0.42727
 Alpha  occ. eigenvalues --   -0.42569  -0.41978  -0.40984  -0.40287  -0.40085
 Alpha  occ. eigenvalues --   -0.39585  -0.39388  -0.38858  -0.38373  -0.36304
 Alpha  occ. eigenvalues --   -0.33599  -0.32559  -0.31741  -0.31675  -0.30863
 Alpha  occ. eigenvalues --   -0.29440  -0.28578  -0.23895
 Alpha virt. eigenvalues --    0.01423   0.02412   0.03421   0.04048   0.04465
 Alpha virt. eigenvalues --    0.05346   0.05752   0.08184   0.08482   0.08683
 Alpha virt. eigenvalues --    0.10640   0.11217   0.11709   0.12204   0.12987

 Mulliken charges:
               1
     1  C   -0.086318
     2  C   -0.121904
     3  C   -0.133130
     4  C   -0.086533
     5  C   -0.001888
     6  C   -0.133328
     7  H    0.103928
     8  H    0.126674
     9  H    0.100979
    10  H    0.126350
    11  C    0.037551
    12  C   -0.153192
    13  C   -0.157094
    14  C   -0.108658
    15  C   -0.131173
    16  C   -0.017524
    17  H    0.122036
    18  H    0.120832
    19  H    0.137746
    20  H    0.151761
    21  H    0.101126
    22  N   -0.003174
    23  C    0.050536
    24  C   -0.206975
    25  C   -0.181657
    26  C    0.066084
    27  C   -0.116809
    28  C   -0.152818
    29  H    0.155060
    30  H    0.155847
    31  H    0.100486
    32  H    0.098793
    33  C   -0.212426
    34  C   -0.033249
    35  C   -0.007723
    36  C   -0.181507
    37  C   -0.212247
    38  C    0.129862
    39  H    0.134455
    40  H    0.131689
    41  H    0.106951
    42  H    0.117583
    43  O   -0.239332
    44  H    0.268928
    45  O   -0.235388
    46  H    0.268788
 Sum of Mulliken charges =  -0.00000

 Dipole moment (field-independent basis, Debye):
    X=              1.3745    Y=             -0.9869    Z=             -1.4395  Tot=              2.2216
 Quadrupole moment (field-independent basis, Debye-Ang):
   XX=           -138.1048   YY=           -146.2326   ZZ=           -152.3594
   XY=             -3.4893   XZ=             -8.5354   YZ=             -6.7996

 Normal termination of Gaussian 16 at Sun Jan 17 22:24:48 2021.
