 Gaussian 16, Revision A.03,
 Gaussian 16:  EM64L-G16RevA.03 25-Dec-2016

 ----------------------------------------------------------------------
 #P LC-wHPBE/TZVP iop(3/107=0186500000, 3/108=0186500000) scf=(conver=6
 ,fermi,ndamp=35,noincfock,novaracc,vshift=500,xqc)
 ----------------------------------------------------------------------

 -------------
 H19 C24 N1 O2
 -------------
 Symbolic Z-matrix:
 Charge =  0 Multiplicity = 1

                         Standard orientation:
 ---------------------------------------------------------------------
 Center     Atomic      Atomic             Coordinates (Angstroms)
 Number     Number       Type             X           Y           Z
 ---------------------------------------------------------------------
      1          6           0       -6.538108   -0.217341    1.255514
      2          6           0       -7.258661    0.087287    0.107878
      3          6           0       -5.151390   -0.259049    1.219222
      4          6           0       -6.580697    0.348691   -1.075777
      5          6           0       -4.458004    0.000662    0.035726
      6          6           0       -5.193998    0.304569   -1.110911
      7          1           0       -8.345644    0.121015    0.135956
      8          1           0       -4.593910   -0.476283    2.128350
      9          1           0       -7.136138    0.581164   -1.982188
     10          1           0       -4.671509    0.488761   -2.047704
     11          6           0       -2.974479   -0.044963   -0.002770
     12          6           0       -2.240322    0.918366   -0.694597
     13          6           0       -2.265576   -1.051297    0.654611
     14          6           0       -0.856277    0.875925   -0.739808
     15          6           0       -0.881570   -1.094369    0.628888
     16          6           0       -0.155643   -0.133238   -0.077397
     17          1           0       -2.762026    1.727417   -1.202285
     18          1           0       -2.809037   -1.823891    1.195264
     19          1           0       -0.306381    1.639189   -1.284917
     20          1           0       -0.352632   -1.885069    1.155020
     21          1           0       -7.059465   -0.416189    2.189743
     22          7           0        1.257026   -0.160831   -0.103806
     23          6           0        1.965402   -1.377887   -0.174570
     24          6           0        3.190004   -1.508547    0.478017
     25          6           0        1.461496   -2.456008   -0.912094
     26          6           0        3.903051   -2.696891    0.390217
     27          6           0        2.178621   -3.638306   -0.974610
     28          6           0        3.402953   -3.775056   -0.332839
     29          1           0        3.600761   -0.690157    1.062074
     30          1           0        0.514840   -2.358097   -1.435231
     31          1           0        1.782807   -4.471654   -1.551437
     32          1           0        3.963923   -4.706428   -0.398055
     33          6           0        1.972861    1.068372   -0.045814
     34          6           0        2.971482    1.350948   -0.972341
     35          6           0        1.683086    2.012203    0.939258
     36          6           0        3.676780    2.543988   -0.910119
     37          6           0        2.365608    3.214996    0.992156
     38          6           0        3.371443    3.483300    0.069272
     39          1           0        3.205268    0.621566   -1.744392
     40          1           0        0.904271    1.798314    1.667748
     41          1           0        4.460878    2.747602   -1.639197
     42          1           0        2.139895    3.954598    1.756001
     43          8           0        4.022986    4.680331    0.173244
     44          1           0        4.695287    4.738350   -0.517835
     45          8           0        5.097214   -2.751708    1.053752
     46          1           0        5.479651   -3.631493    0.941087
 ---------------------------------------------------------------------

 SCF Done:  E(RLC-wHPBE) =  -1130.50001299     A.U. after   14 cycles

 The electronic state is 1-A.
 Alpha  occ. eigenvalues --  -18.88943 -18.88581 -14.12280 -10.05442 -10.05162
 Alpha  occ. eigenvalues --  -10.03469 -10.03204 -10.02803 -10.00135  -9.99883
 Alpha  occ. eigenvalues --   -9.99799  -9.99740  -9.99640  -9.99485  -9.99238
 Alpha  occ. eigenvalues --   -9.99165  -9.99154  -9.99088  -9.99084  -9.98971
 Alpha  occ. eigenvalues --   -9.98970  -9.98955  -9.98901  -9.98895  -9.98762
 Alpha  occ. eigenvalues --   -9.98280  -9.98218  -1.08679  -1.08329  -0.99763
 Alpha  occ. eigenvalues --   -0.90358  -0.89488  -0.88738  -0.87316  -0.81654
 Alpha  occ. eigenvalues --   -0.79838  -0.79474  -0.78705  -0.78550  -0.78012
 Alpha  occ. eigenvalues --   -0.77158  -0.74405  -0.68860  -0.68361  -0.66960
 Alpha  occ. eigenvalues --   -0.66195  -0.65336  -0.64330  -0.63866  -0.62556
 Alpha  occ. eigenvalues --   -0.60559  -0.59848  -0.58889  -0.57381  -0.55000
 Alpha  occ. eigenvalues --   -0.53901  -0.53701  -0.52610  -0.51797  -0.51279
 Alpha  occ. eigenvalues --   -0.49908  -0.49422  -0.49049  -0.48556  -0.48285
 Alpha  occ. eigenvalues --   -0.47973  -0.47505  -0.47126  -0.46941  -0.46681
 Alpha  occ. eigenvalues --   -0.46155  -0.44800  -0.44245  -0.43913  -0.42919
 Alpha  occ. eigenvalues --   -0.42783  -0.42168  -0.41188  -0.40486  -0.40281
 Alpha  occ. eigenvalues --   -0.39772  -0.39575  -0.39041  -0.38556  -0.36490
 Alpha  occ. eigenvalues --   -0.33762  -0.32715  -0.31895  -0.31828  -0.31016
 Alpha  occ. eigenvalues --   -0.29581  -0.28727  -0.24018
 Alpha virt. eigenvalues --    0.01530   0.02529   0.03536   0.04170   0.04591
 Alpha virt. eigenvalues --    0.05469   0.05876   0.08312   0.08608   0.08815
 Alpha virt. eigenvalues --    0.10758   0.11336   0.11831   0.12323   0.13103

 Mulliken charges:
               1
     1  C   -0.086594
     2  C   -0.122470
     3  C   -0.133765
     4  C   -0.086809
     5  C   -0.001511
     6  C   -0.133969
     7  H    0.104336
     8  H    0.127168
     9  H    0.101396
    10  H    0.126842
    11  C    0.037074
    12  C   -0.153685
    13  C   -0.157600
    14  C   -0.108810
    15  C   -0.131105
    16  C   -0.017912
    17  H    0.122565
    18  H    0.121358
    19  H    0.138346
    20  H    0.152338
    21  H    0.101543
    22  N   -0.004565
    23  C    0.050802
    24  C   -0.207345
    25  C   -0.182201
    26  C    0.066137
    27  C   -0.116980
    28  C   -0.153652
    29  H    0.155692
    30  H    0.156401
    31  H    0.100926
    32  H    0.099249
    33  C   -0.212630
    34  C   -0.033299
    35  C   -0.007646
    36  C   -0.182114
    37  C   -0.212812
    38  C    0.129707
    39  H    0.135007
    40  H    0.132244
    41  H    0.107394
    42  H    0.118039
    43  O   -0.239395
    44  H    0.268943
    45  O   -0.235451
    46  H    0.268812
 Sum of Mulliken charges =  -0.00000

 Dipole moment (field-independent basis, Debye):
    X=              1.3656    Y=             -0.9926    Z=             -1.4424  Tot=              2.2205
 Quadrupole moment (field-independent basis, Debye-Ang):
   XX=           -138.0853   YY=           -146.2228   ZZ=           -152.3305
   XY=             -3.5068   XZ=             -8.5513   YZ=             -6.8011

 Normal termination of Gaussian 16 at Sun Jan 17 20:10:54 2021.
