 Gaussian 16, Revision A.03,
 Gaussian 16:  EM64L-G16RevA.03 25-Dec-2016

 ----------------------------------------------------------------------
 #P LC-wHPBE/TZVP iop(3/107=0168400000, 3/108=0168400000) scf=(conver=6
 ,fermi,ndamp=35,noincfock,novaracc,vshift=500,xqc)
 ----------------------------------------------------------------------

 -------------
 H19 C24 N1 O2
 -------------
 Symbolic Z-matrix:
 Charge =  1 Multiplicity = 2

                         Standard orientation:
 ---------------------------------------------------------------------
 Center     Atomic      Atomic             Coordinates (Angstroms)
 Number     Number       Type             X           Y           Z
 ---------------------------------------------------------------------
      1          6           0       -6.538108   -0.217341    1.255514
      2          6           0       -7.258661    0.087287    0.107878
      3          6           0       -5.151390   -0.259049    1.219222
      4          6           0       -6.580697    0.348691   -1.075777
      5          6           0       -4.458004    0.000662    0.035726
      6          6           0       -5.193998    0.304569   -1.110911
      7          1           0       -8.345644    0.121015    0.135956
      8          1           0       -4.593910   -0.476283    2.128350
      9          1           0       -7.136138    0.581164   -1.982188
     10          1           0       -4.671509    0.488761   -2.047704
     11          6           0       -2.974479   -0.044963   -0.002770
     12          6           0       -2.240322    0.918366   -0.694597
     13          6           0       -2.265576   -1.051297    0.654611
     14          6           0       -0.856277    0.875925   -0.739808
     15          6           0       -0.881570   -1.094369    0.628888
     16          6           0       -0.155643   -0.133238   -0.077397
     17          1           0       -2.762026    1.727417   -1.202285
     18          1           0       -2.809037   -1.823891    1.195264
     19          1           0       -0.306381    1.639189   -1.284917
     20          1           0       -0.352632   -1.885069    1.155020
     21          1           0       -7.059465   -0.416189    2.189743
     22          7           0        1.257026   -0.160831   -0.103806
     23          6           0        1.965402   -1.377887   -0.174570
     24          6           0        3.190004   -1.508547    0.478017
     25          6           0        1.461496   -2.456008   -0.912094
     26          6           0        3.903051   -2.696891    0.390217
     27          6           0        2.178621   -3.638306   -0.974610
     28          6           0        3.402953   -3.775056   -0.332839
     29          1           0        3.600761   -0.690157    1.062074
     30          1           0        0.514840   -2.358097   -1.435231
     31          1           0        1.782807   -4.471654   -1.551437
     32          1           0        3.963923   -4.706428   -0.398055
     33          6           0        1.972861    1.068372   -0.045814
     34          6           0        2.971482    1.350948   -0.972341
     35          6           0        1.683086    2.012203    0.939258
     36          6           0        3.676780    2.543988   -0.910119
     37          6           0        2.365608    3.214996    0.992156
     38          6           0        3.371443    3.483300    0.069272
     39          1           0        3.205268    0.621566   -1.744392
     40          1           0        0.904271    1.798314    1.667748
     41          1           0        4.460878    2.747602   -1.639197
     42          1           0        2.139895    3.954598    1.756001
     43          8           0        4.022986    4.680331    0.173244
     44          1           0        4.695287    4.738350   -0.517835
     45          8           0        5.097214   -2.751708    1.053752
     46          1           0        5.479651   -3.631493    0.941087
 ---------------------------------------------------------------------

 SCF Done:  E(ULC-wHPBE) =  -1130.23538519     A.U. after   23 cycles

 The electronic state is 2-A.
 Alpha  occ. eigenvalues --  -19.00196 -18.99168 -14.30928 -10.17824 -10.17056
 Alpha  occ. eigenvalues --  -10.16785 -10.16621 -10.16172 -10.12654 -10.12418
 Alpha  occ. eigenvalues --  -10.12397 -10.12055 -10.12050 -10.11661 -10.11510
 Alpha  occ. eigenvalues --  -10.11482 -10.11336 -10.11323 -10.11003 -10.10882
 Alpha  occ. eigenvalues --  -10.10880 -10.09264 -10.07747 -10.07744 -10.07117
 Alpha  occ. eigenvalues --  -10.07074 -10.07056  -1.19726  -1.18909  -1.15549
 Alpha  occ. eigenvalues --   -1.02440  -1.02114  -1.00337  -0.97714  -0.93418
 Alpha  occ. eigenvalues --   -0.92677  -0.91498  -0.90763  -0.90531  -0.88796
 Alpha  occ. eigenvalues --   -0.86647  -0.85862  -0.81148  -0.80956  -0.79141
 Alpha  occ. eigenvalues --   -0.77928  -0.77109  -0.76016  -0.73406  -0.72863
 Alpha  occ. eigenvalues --   -0.72509  -0.71921  -0.71526  -0.67484  -0.67086
 Alpha  occ. eigenvalues --   -0.66490  -0.66226  -0.63949  -0.63790  -0.62704
 Alpha  occ. eigenvalues --   -0.61845  -0.60523  -0.60371  -0.60030  -0.59601
 Alpha  occ. eigenvalues --   -0.59261  -0.58936  -0.58691  -0.58372  -0.57881
 Alpha  occ. eigenvalues --   -0.57433  -0.56237  -0.55413  -0.55121  -0.54991
 Alpha  occ. eigenvalues --   -0.53919  -0.53682  -0.52714  -0.52249  -0.51940
 Alpha  occ. eigenvalues --   -0.51635  -0.51352  -0.49490  -0.48367  -0.47729
 Alpha  occ. eigenvalues --   -0.45966  -0.45096  -0.44412  -0.43649  -0.41167
 Alpha  occ. eigenvalues --   -0.40475  -0.40423  -0.38220
 Alpha virt. eigenvalues --   -0.11481  -0.10908  -0.10374  -0.09000  -0.08032
 Alpha virt. eigenvalues --   -0.06918  -0.05590  -0.04009  -0.02130  -0.01810
 Alpha virt. eigenvalues --   -0.01174  -0.00015   0.00492   0.01755   0.02014

  Beta  occ. eigenvalues --  -19.00105 -18.99183 -14.30154 -10.17713 -10.17112
  Beta  occ. eigenvalues --  -10.16842 -10.16639 -10.16171 -10.12557 -10.12327
  Beta  occ. eigenvalues --  -10.12218 -10.11922 -10.11918 -10.11677 -10.11404
  Beta  occ. eigenvalues --  -10.11338 -10.11296 -10.11218 -10.11024 -10.10931
  Beta  occ. eigenvalues --  -10.10928 -10.09277 -10.07713 -10.07710 -10.07104
  Beta  occ. eigenvalues --  -10.07086 -10.07046  -1.19562  -1.18935  -1.14555
  Beta  occ. eigenvalues --   -1.02225  -1.01918  -1.00076  -0.97611  -0.93212
  Beta  occ. eigenvalues --   -0.92464  -0.91382  -0.90613  -0.90372  -0.88486
  Beta  occ. eigenvalues --   -0.86611  -0.85625  -0.80907  -0.80768  -0.78949
  Beta  occ. eigenvalues --   -0.77757  -0.76987  -0.75887  -0.73318  -0.72759
  Beta  occ. eigenvalues --   -0.72418  -0.71801  -0.71344  -0.67369  -0.66896
  Beta  occ. eigenvalues --   -0.66091  -0.66062  -0.63754  -0.63670  -0.62597
  Beta  occ. eigenvalues --   -0.61744  -0.60397  -0.60254  -0.59961  -0.59470
  Beta  occ. eigenvalues --   -0.59067  -0.58618  -0.58514  -0.58219  -0.57812
  Beta  occ. eigenvalues --   -0.56862  -0.56006  -0.55350  -0.54995  -0.54870
  Beta  occ. eigenvalues --   -0.53612  -0.53384  -0.52265  -0.52144  -0.51737
  Beta  occ. eigenvalues --   -0.51550  -0.51272  -0.48453  -0.48326  -0.47598
  Beta  occ. eigenvalues --   -0.45353  -0.44492  -0.44061  -0.42429  -0.40415
  Beta  occ. eigenvalues --   -0.40383  -0.39287
  Beta virt. eigenvalues --   -0.24021  -0.10836  -0.10598  -0.09807  -0.08565
  Beta virt. eigenvalues --   -0.07561  -0.06206  -0.05508  -0.03519  -0.02088
  Beta virt. eigenvalues --   -0.01777  -0.01099   0.00059   0.00564   0.01806

 Mulliken charges and spin densities:
               1          2
     1  C   -0.085870  -0.012288
     2  C   -0.106263   0.029245
     3  C   -0.124664   0.025267
     4  C   -0.086116  -0.012316
     5  C    0.023664  -0.017180
     6  C   -0.124598   0.025464
     7  H    0.132574  -0.001511
     8  H    0.138730  -0.001359
     9  H    0.126323   0.000610
    10  H    0.138517  -0.001337
    11  C    0.017062   0.137940
    12  C   -0.136342  -0.050310
    13  C   -0.140070  -0.051531
    14  C   -0.082059   0.092007
    15  C   -0.110083   0.093754
    16  C   -0.028212   0.004523
    17  H    0.159838   0.002310
    18  H    0.158578   0.002268
    19  H    0.166290  -0.004015
    20  H    0.182423  -0.004006
    21  H    0.126452   0.000613
    22  N    0.089237   0.343616
    23  C    0.031925  -0.021730
    24  C   -0.175508   0.081696
    25  C   -0.154055   0.120100
    26  C    0.055884  -0.049946
    27  C   -0.112971  -0.062704
    28  C   -0.096361   0.150185
    29  H    0.184837  -0.003543
    30  H    0.186734  -0.005046
    31  H    0.142734   0.002830
    32  H    0.145076  -0.007771
    33  C   -0.230519   0.015823
    34  C   -0.017494   0.063505
    35  C    0.007982   0.056478
    36  C   -0.157974  -0.022109
    37  C   -0.195204  -0.024399
    38  C    0.141215   0.080522
    39  H    0.163915  -0.003060
    40  H    0.160743  -0.002537
    41  H    0.147487   0.001155
    42  H    0.159904   0.001508
    43  O   -0.192842   0.032418
    44  H    0.288431  -0.000792
    45  O   -0.206778  -0.004478
    46  H    0.287429   0.000131
 Sum of Mulliken charges =   1.00000   1.00000

 Dipole moment (field-independent basis, Debye):
    X=              4.3054    Y=             -1.4081    Z=             -1.7604  Tot=              4.8598
 Quadrupole moment (field-independent basis, Debye-Ang):
   XX=            -67.6674   YY=           -109.7033   ZZ=           -143.1858
   XY=             -4.0563   XZ=             -9.5655   YZ=             -5.9387

 Normal termination of Gaussian 16 at Sun Jan 17 20:00:00 2021.
