 Gaussian 16, Revision A.03,
 Gaussian 16:  EM64L-G16RevA.03 25-Dec-2016

 ----------------------------------------------------------------------
 #P LC-wHPBE/TZVP iop(3/107=0176600000, 3/108=0176600000) scf=(conver=6
 ,fermi,ndamp=35,noincfock,novaracc,vshift=500,xqc)
 ----------------------------------------------------------------------

 -------------
 H19 C24 N1 O2
 -------------
 Symbolic Z-matrix:
 Charge =  1 Multiplicity = 2

                         Standard orientation:
 ---------------------------------------------------------------------
 Center     Atomic      Atomic             Coordinates (Angstroms)
 Number     Number       Type             X           Y           Z
 ---------------------------------------------------------------------
      1          6           0       -6.538108   -0.217341    1.255514
      2          6           0       -7.258661    0.087287    0.107878
      3          6           0       -5.151390   -0.259049    1.219222
      4          6           0       -6.580697    0.348691   -1.075777
      5          6           0       -4.458004    0.000662    0.035726
      6          6           0       -5.193998    0.304569   -1.110911
      7          1           0       -8.345644    0.121015    0.135956
      8          1           0       -4.593910   -0.476283    2.128350
      9          1           0       -7.136138    0.581164   -1.982188
     10          1           0       -4.671509    0.488761   -2.047704
     11          6           0       -2.974479   -0.044963   -0.002770
     12          6           0       -2.240322    0.918366   -0.694597
     13          6           0       -2.265576   -1.051297    0.654611
     14          6           0       -0.856277    0.875925   -0.739808
     15          6           0       -0.881570   -1.094369    0.628888
     16          6           0       -0.155643   -0.133238   -0.077397
     17          1           0       -2.762026    1.727417   -1.202285
     18          1           0       -2.809037   -1.823891    1.195264
     19          1           0       -0.306381    1.639189   -1.284917
     20          1           0       -0.352632   -1.885069    1.155020
     21          1           0       -7.059465   -0.416189    2.189743
     22          7           0        1.257026   -0.160831   -0.103806
     23          6           0        1.965402   -1.377887   -0.174570
     24          6           0        3.190004   -1.508547    0.478017
     25          6           0        1.461496   -2.456008   -0.912094
     26          6           0        3.903051   -2.696891    0.390217
     27          6           0        2.178621   -3.638306   -0.974610
     28          6           0        3.402953   -3.775056   -0.332839
     29          1           0        3.600761   -0.690157    1.062074
     30          1           0        0.514840   -2.358097   -1.435231
     31          1           0        1.782807   -4.471654   -1.551437
     32          1           0        3.963923   -4.706428   -0.398055
     33          6           0        1.972861    1.068372   -0.045814
     34          6           0        2.971482    1.350948   -0.972341
     35          6           0        1.683086    2.012203    0.939258
     36          6           0        3.676780    2.543988   -0.910119
     37          6           0        2.365608    3.214996    0.992156
     38          6           0        3.371443    3.483300    0.069272
     39          1           0        3.205268    0.621566   -1.744392
     40          1           0        0.904271    1.798314    1.667748
     41          1           0        4.460878    2.747602   -1.639197
     42          1           0        2.139895    3.954598    1.756001
     43          8           0        4.022986    4.680331    0.173244
     44          1           0        4.695287    4.738350   -0.517835
     45          8           0        5.097214   -2.751708    1.053752
     46          1           0        5.479651   -3.631493    0.941087
 ---------------------------------------------------------------------

 SCF Done:  E(ULC-wHPBE) =  -1130.24687165     A.U. after   23 cycles

 The electronic state is 2-A.
 Alpha  occ. eigenvalues --  -19.00620 -18.99610 -14.31478 -10.18302 -10.17542
 Alpha  occ. eigenvalues --  -10.17281 -10.17111 -10.16652 -10.13142 -10.12904
 Alpha  occ. eigenvalues --  -10.12878 -10.12547 -10.12541 -10.12124 -10.12000
 Alpha  occ. eigenvalues --  -10.11964 -10.11829 -10.11806 -10.11465 -10.11352
 Alpha  occ. eigenvalues --  -10.11350 -10.09710 -10.08194 -10.08191 -10.07559
 Alpha  occ. eigenvalues --  -10.07518 -10.07499  -1.20180  -1.19379  -1.16093
 Alpha  occ. eigenvalues --   -1.02948  -1.02623  -1.00841  -0.98194  -0.93908
 Alpha  occ. eigenvalues --   -0.93167  -0.91982  -0.91253  -0.91019  -0.89272
 Alpha  occ. eigenvalues --   -0.87103  -0.86325  -0.81610  -0.81408  -0.79593
 Alpha  occ. eigenvalues --   -0.78383  -0.77557  -0.76451  -0.73833  -0.73286
 Alpha  occ. eigenvalues --   -0.72940  -0.72348  -0.71940  -0.67909  -0.67509
 Alpha  occ. eigenvalues --   -0.66914  -0.66633  -0.64355  -0.64195  -0.63108
 Alpha  occ. eigenvalues --   -0.62240  -0.60928  -0.60768  -0.60419  -0.60002
 Alpha  occ. eigenvalues --   -0.59650  -0.59345  -0.59080  -0.58763  -0.58261
 Alpha  occ. eigenvalues --   -0.57840  -0.56626  -0.55778  -0.55488  -0.55361
 Alpha  occ. eigenvalues --   -0.54304  -0.54037  -0.53098  -0.52622  -0.52314
 Alpha  occ. eigenvalues --   -0.51989  -0.51711  -0.49863  -0.48694  -0.48055
 Alpha  occ. eigenvalues --   -0.46280  -0.45403  -0.44715  -0.43957  -0.41463
 Alpha  occ. eigenvalues --   -0.40743  -0.40692  -0.38485
 Alpha virt. eigenvalues --   -0.11282  -0.10690  -0.10164  -0.08766  -0.07806
 Alpha virt. eigenvalues --   -0.06689  -0.05335  -0.03750  -0.01887  -0.01576
 Alpha virt. eigenvalues --   -0.00947   0.00213   0.00716   0.01976   0.02236

  Beta  occ. eigenvalues --  -19.00530 -18.99626 -14.30692 -10.18191 -10.17600
  Beta  occ. eigenvalues --  -10.17342 -10.17131 -10.16654 -10.13042 -10.12811
  Beta  occ. eigenvalues --  -10.12697 -10.12411 -10.12406 -10.12142 -10.11889
  Beta  occ. eigenvalues --  -10.11826 -10.11776 -10.11709 -10.11487 -10.11404
  Beta  occ. eigenvalues --  -10.11400 -10.09724 -10.08160 -10.08157 -10.07547
  Beta  occ. eigenvalues --  -10.07530 -10.07488  -1.20017  -1.19407  -1.15086
  Beta  occ. eigenvalues --   -1.02732  -1.02428  -1.00577  -0.98091  -0.93702
  Beta  occ. eigenvalues --   -0.92955  -0.91866  -0.91102  -0.90859  -0.88957
  Beta  occ. eigenvalues --   -0.87068  -0.86086  -0.81367  -0.81218  -0.79398
  Beta  occ. eigenvalues --   -0.78211  -0.77435  -0.76322  -0.73745  -0.73182
  Beta  occ. eigenvalues --   -0.72850  -0.72226  -0.71759  -0.67792  -0.67313
  Beta  occ. eigenvalues --   -0.66509  -0.66467  -0.64157  -0.64075  -0.63000
  Beta  occ. eigenvalues --   -0.62139  -0.60800  -0.60646  -0.60350  -0.59866
  Beta  occ. eigenvalues --   -0.59453  -0.59027  -0.58900  -0.58610  -0.58189
  Beta  occ. eigenvalues --   -0.57261  -0.56386  -0.55713  -0.55359  -0.55239
  Beta  occ. eigenvalues --   -0.53967  -0.53763  -0.52635  -0.52514  -0.52102
  Beta  occ. eigenvalues --   -0.51907  -0.51629  -0.48777  -0.48653  -0.47919
  Beta  occ. eigenvalues --   -0.45652  -0.44780  -0.44352  -0.42694  -0.40684
  Beta  occ. eigenvalues --   -0.40652  -0.39530
  Beta virt. eigenvalues --   -0.23920  -0.10631  -0.10375  -0.09589  -0.08319
  Beta virt. eigenvalues --   -0.07322  -0.05951  -0.05253  -0.03245  -0.01845
  Beta virt. eigenvalues --   -0.01543  -0.00873   0.00288   0.00788   0.02026

 Mulliken charges and spin densities:
               1          2
     1  C   -0.086379  -0.012562
     2  C   -0.107202   0.028994
     3  C   -0.125716   0.025433
     4  C   -0.086625  -0.012587
     5  C    0.024491  -0.018239
     6  C   -0.125652   0.025627
     7  H    0.133021  -0.001494
     8  H    0.139289  -0.001359
     9  H    0.126795   0.000621
    10  H    0.139073  -0.001337
    11  C    0.016124   0.140053
    12  C   -0.137265  -0.052818
    13  C   -0.141003  -0.053979
    14  C   -0.081971   0.094314
    15  C   -0.109700   0.095994
    16  C   -0.029280   0.002012
    17  H    0.160683   0.002417
    18  H    0.159416   0.002372
    19  H    0.167312  -0.004102
    20  H    0.183386  -0.004092
    21  H    0.126924   0.000624
    22  N    0.089149   0.349138
    23  C    0.031819  -0.024235
    24  C   -0.175803   0.083983
    25  C   -0.154569   0.121971
    26  C    0.055632  -0.051936
    27  C   -0.113557  -0.064844
    28  C   -0.097298   0.151820
    29  H    0.185928  -0.003625
    30  H    0.187689  -0.005116
    31  H    0.143392   0.002920
    32  H    0.145774  -0.007833
    33  C   -0.231422   0.013702
    34  C   -0.017230   0.065008
    35  C    0.008446   0.057932
    36  C   -0.159343  -0.023866
    37  C   -0.196468  -0.026113
    38  C    0.141295   0.081593
    39  H    0.164791  -0.003122
    40  H    0.161649  -0.002591
    41  H    0.148123   0.001229
    42  H    0.160533   0.001577
    43  O   -0.193136   0.031908
    44  H    0.288374  -0.000782
    45  O   -0.206909  -0.004746
    46  H    0.287423   0.000136
 Sum of Mulliken charges =   1.00000   1.00000

 Dipole moment (field-independent basis, Debye):
    X=              4.3263    Y=             -1.4297    Z=             -1.7672  Tot=              4.8871
 Quadrupole moment (field-independent basis, Debye-Ang):
   XX=            -67.9074   YY=           -109.7237   ZZ=           -143.1486
   XY=             -4.1206   XZ=             -9.5919   YZ=             -5.9374

 Normal termination of Gaussian 16 at Sun Jan 17 22:13:54 2021.
