 Gaussian 16, Revision A.03,
 Gaussian 16:  EM64L-G16RevA.03 25-Dec-2016

 ----------------------------------------------------------------------
 #P LC-wHPBE/TZVP iop(3/107=0328100000, 3/108=0328100000) scf=(conver=6
 ,fermi,ndamp=35,noincfock,novaracc,vshift=500,xqc)
 ----------------------------------------------------------------------

 -------------
 H19 C24 N1 O2
 -------------
 Symbolic Z-matrix:
 Charge =  1 Multiplicity = 2

                         Standard orientation:
 ---------------------------------------------------------------------
 Center     Atomic      Atomic             Coordinates (Angstroms)
 Number     Number       Type             X           Y           Z
 ---------------------------------------------------------------------
      1          6           0       -6.538108   -0.217341    1.255514
      2          6           0       -7.258661    0.087287    0.107878
      3          6           0       -5.151390   -0.259049    1.219222
      4          6           0       -6.580697    0.348691   -1.075777
      5          6           0       -4.458004    0.000662    0.035726
      6          6           0       -5.193998    0.304569   -1.110911
      7          1           0       -8.345644    0.121015    0.135956
      8          1           0       -4.593910   -0.476283    2.128350
      9          1           0       -7.136138    0.581164   -1.982188
     10          1           0       -4.671509    0.488761   -2.047704
     11          6           0       -2.974479   -0.044963   -0.002770
     12          6           0       -2.240322    0.918366   -0.694597
     13          6           0       -2.265576   -1.051297    0.654611
     14          6           0       -0.856277    0.875925   -0.739808
     15          6           0       -0.881570   -1.094369    0.628888
     16          6           0       -0.155643   -0.133238   -0.077397
     17          1           0       -2.762026    1.727417   -1.202285
     18          1           0       -2.809037   -1.823891    1.195264
     19          1           0       -0.306381    1.639189   -1.284917
     20          1           0       -0.352632   -1.885069    1.155020
     21          1           0       -7.059465   -0.416189    2.189743
     22          7           0        1.257026   -0.160831   -0.103806
     23          6           0        1.965402   -1.377887   -0.174570
     24          6           0        3.190004   -1.508547    0.478017
     25          6           0        1.461496   -2.456008   -0.912094
     26          6           0        3.903051   -2.696891    0.390217
     27          6           0        2.178621   -3.638306   -0.974610
     28          6           0        3.402953   -3.775056   -0.332839
     29          1           0        3.600761   -0.690157    1.062074
     30          1           0        0.514840   -2.358097   -1.435231
     31          1           0        1.782807   -4.471654   -1.551437
     32          1           0        3.963923   -4.706428   -0.398055
     33          6           0        1.972861    1.068372   -0.045814
     34          6           0        2.971482    1.350948   -0.972341
     35          6           0        1.683086    2.012203    0.939258
     36          6           0        3.676780    2.543988   -0.910119
     37          6           0        2.365608    3.214996    0.992156
     38          6           0        3.371443    3.483300    0.069272
     39          1           0        3.205268    0.621566   -1.744392
     40          1           0        0.904271    1.798314    1.667748
     41          1           0        4.460878    2.747602   -1.639197
     42          1           0        2.139895    3.954598    1.756001
     43          8           0        4.022986    4.680331    0.173244
     44          1           0        4.695287    4.738350   -0.517835
     45          8           0        5.097214   -2.751708    1.053752
     46          1           0        5.479651   -3.631493    0.941087
 ---------------------------------------------------------------------

 SCF Done:  E(ULC-wHPBE) =  -1130.42331311     A.U. after   25 cycles

 The electronic state is 2-A.
 Alpha  occ. eigenvalues --  -19.08299 -19.07496 -14.41184 -10.27150 -10.26435
 Alpha  occ. eigenvalues --  -10.26338 -10.26081 -10.25431 -10.22046 -10.21772
 Alpha  occ. eigenvalues --  -10.21751 -10.21511 -10.21496 -10.20928 -10.20787
 Alpha  occ. eigenvalues --  -10.20753 -10.20625 -10.20605 -10.20005 -10.19992
 Alpha  occ. eigenvalues --  -10.19935 -10.18154 -10.16643 -10.16640 -10.15943
 Alpha  occ. eigenvalues --  -10.15897 -10.15878  -1.28384  -1.27765  -1.25756
 Alpha  occ. eigenvalues --   -1.12090  -1.11689  -1.09792  -1.06980  -1.02473
 Alpha  occ. eigenvalues --   -1.01587  -1.00355  -0.99701  -0.99403  -0.97426
 Alpha  occ. eigenvalues --   -0.95210  -0.94284  -0.89184  -0.88803  -0.86990
 Alpha  occ. eigenvalues --   -0.85843  -0.84832  -0.83423  -0.80809  -0.80174
 Alpha  occ. eigenvalues --   -0.79913  -0.79094  -0.78337  -0.74573  -0.74170
 Alpha  occ. eigenvalues --   -0.73538  -0.72894  -0.70645  -0.70425  -0.69397
 Alpha  occ. eigenvalues --   -0.68267  -0.67130  -0.66880  -0.66366  -0.66129
 Alpha  occ. eigenvalues --   -0.65700  -0.65508  -0.65107  -0.64652  -0.64184
 Alpha  occ. eigenvalues --   -0.63873  -0.62505  -0.61431  -0.61102  -0.60938
 Alpha  occ. eigenvalues --   -0.60069  -0.59450  -0.58714  -0.58221  -0.57805
 Alpha  occ. eigenvalues --   -0.57299  -0.57040  -0.55240  -0.53674  -0.52982
 Alpha  occ. eigenvalues --   -0.50417  -0.49366  -0.48606  -0.48085  -0.45399
 Alpha  occ. eigenvalues --   -0.44282  -0.44229  -0.41966
 Alpha virt. eigenvalues --   -0.09107  -0.08275  -0.07805  -0.06115  -0.05198
 Alpha virt. eigenvalues --   -0.04081  -0.02544  -0.00838   0.00850   0.01239
 Alpha virt. eigenvalues --    0.01731   0.02857   0.03252   0.04410   0.04698

  Beta  occ. eigenvalues --  -19.08216 -19.07532 -14.40227 -10.27006 -10.26555
  Beta  occ. eigenvalues --  -10.26477 -10.26175 -10.25492 -10.21908 -10.21643
  Beta  occ. eigenvalues --  -10.21510 -10.21317 -10.21302 -10.20751 -10.20693
  Beta  occ. eigenvalues --  -10.20685 -10.20570 -10.20545 -10.20121 -10.20107
  Beta  occ. eigenvalues --  -10.19999 -10.18193 -10.16596 -10.16593 -10.15937
  Beta  occ. eigenvalues --  -10.15923 -10.15866  -1.28219  -1.27832  -1.24533
  Beta  occ. eigenvalues --   -1.11842  -1.11477  -1.09454  -1.06851  -1.02243
  Beta  occ. eigenvalues --   -1.01364  -1.00232  -0.99521  -0.99205  -0.97006
  Beta  occ. eigenvalues --   -0.95168  -0.93952  -0.88873  -0.88572  -0.86734
  Beta  occ. eigenvalues --   -0.85648  -0.84711  -0.83282  -0.80728  -0.80049
  Beta  occ. eigenvalues --   -0.79793  -0.78937  -0.78142  -0.74409  -0.73808
  Beta  occ. eigenvalues --   -0.72962  -0.72678  -0.70351  -0.70301  -0.69254
  Beta  occ. eigenvalues --   -0.68149  -0.66945  -0.66666  -0.66289  -0.65911
  Beta  occ. eigenvalues --   -0.65426  -0.65138  -0.64833  -0.64425  -0.64008
  Beta  occ. eigenvalues --   -0.63131  -0.62105  -0.61337  -0.60904  -0.60787
  Beta  occ. eigenvalues --   -0.59373  -0.59296  -0.58083  -0.57975  -0.57476
  Beta  occ. eigenvalues --   -0.57221  -0.56933  -0.53620  -0.53291  -0.52710
  Beta  occ. eigenvalues --   -0.49501  -0.48557  -0.48039  -0.46254  -0.44201
  Beta  occ. eigenvalues --   -0.44123  -0.42751
  Beta virt. eigenvalues --   -0.22789  -0.08376  -0.07914  -0.07114  -0.05412
  Beta virt. eigenvalues --   -0.04503  -0.02981  -0.02447   0.00021   0.00909
  Beta virt. eigenvalues --    0.01264   0.01786   0.02936   0.03331   0.04456

 Mulliken charges and spin densities:
               1          2
     1  C   -0.104416  -0.025752
     2  C   -0.130340   0.039348
     3  C   -0.150497   0.038903
     4  C   -0.104606  -0.025764
     5  C    0.024247  -0.041537
     6  C   -0.150525   0.039112
     7  H    0.151560  -0.001892
     8  H    0.160234  -0.001787
     9  H    0.145990   0.001162
    10  H    0.159994  -0.001761
    11  C   -0.002101   0.198876
    12  C   -0.153122  -0.114577
    13  C   -0.157452  -0.115402
    14  C   -0.088943   0.147812
    15  C   -0.111846   0.149125
    16  C   -0.057440  -0.055603
    17  H    0.184744   0.004768
    18  H    0.183270   0.004722
    19  H    0.194535  -0.006065
    20  H    0.209276  -0.006004
    21  H    0.146124   0.001165
    22  N    0.077966   0.429641
    23  C    0.016433  -0.085615
    24  C   -0.180884   0.137588
    25  C   -0.172683   0.176513
    26  C    0.052888  -0.106456
    27  C   -0.127289  -0.126341
    28  C   -0.117254   0.208701
    29  H    0.214138  -0.005502
    30  H    0.213118  -0.007052
    31  H    0.163893   0.005387
    32  H    0.165695  -0.010085
    33  C   -0.254735  -0.032211
    34  C   -0.027281   0.098455
    35  C   -0.000033   0.089775
    36  C   -0.178011  -0.063197
    37  C   -0.211431  -0.065091
    38  C    0.137638   0.111966
    39  H    0.189958  -0.004366
    40  H    0.186947  -0.003678
    41  H    0.167650   0.002803
    42  H    0.181362   0.003075
    43  O   -0.206944   0.026731
    44  H    0.289644  -0.000746
    45  O   -0.218716  -0.009394
    46  H    0.289242   0.000250
 Sum of Mulliken charges =   1.00000   1.00000

 Dipole moment (field-independent basis, Debye):
    X=              4.3590    Y=             -1.7738    Z=             -1.9004  Tot=              5.0753
 Quadrupole moment (field-independent basis, Debye-Ang):
   XX=            -70.4172   YY=           -110.1369   ZZ=           -142.4283
   XY=             -5.1542   XZ=            -10.1976   YZ=             -5.9698

 Normal termination of Gaussian 16 at Sun Jan 17 18:53:12 2021.
