 Gaussian 16, Revision A.03,
 Gaussian 16:  EM64L-G16RevA.03 25-Dec-2016

 ----------------------------------------------------------------------
 #P LC-wHPBE/TZVP iop(3/107=0182300000, 3/108=0182300000) scf=(conver=6
 ,fermi,ndamp=35,noincfock,novaracc,vshift=500,xqc)
 ----------------------------------------------------------------------

 -------------
 H19 C24 N1 O2
 -------------
 Symbolic Z-matrix:
 Charge =  0 Multiplicity = 1

                         Standard orientation:
 ---------------------------------------------------------------------
 Center     Atomic      Atomic             Coordinates (Angstroms)
 Number     Number       Type             X           Y           Z
 ---------------------------------------------------------------------
      1          6           0       -6.538108   -0.217341    1.255514
      2          6           0       -7.258661    0.087287    0.107878
      3          6           0       -5.151390   -0.259049    1.219222
      4          6           0       -6.580697    0.348691   -1.075777
      5          6           0       -4.458004    0.000662    0.035726
      6          6           0       -5.193998    0.304569   -1.110911
      7          1           0       -8.345644    0.121015    0.135956
      8          1           0       -4.593910   -0.476283    2.128350
      9          1           0       -7.136138    0.581164   -1.982188
     10          1           0       -4.671509    0.488761   -2.047704
     11          6           0       -2.974479   -0.044963   -0.002770
     12          6           0       -2.240322    0.918366   -0.694597
     13          6           0       -2.265576   -1.051297    0.654611
     14          6           0       -0.856277    0.875925   -0.739808
     15          6           0       -0.881570   -1.094369    0.628888
     16          6           0       -0.155643   -0.133238   -0.077397
     17          1           0       -2.762026    1.727417   -1.202285
     18          1           0       -2.809037   -1.823891    1.195264
     19          1           0       -0.306381    1.639189   -1.284917
     20          1           0       -0.352632   -1.885069    1.155020
     21          1           0       -7.059465   -0.416189    2.189743
     22          7           0        1.257026   -0.160831   -0.103806
     23          6           0        1.965402   -1.377887   -0.174570
     24          6           0        3.190004   -1.508547    0.478017
     25          6           0        1.461496   -2.456008   -0.912094
     26          6           0        3.903051   -2.696891    0.390217
     27          6           0        2.178621   -3.638306   -0.974610
     28          6           0        3.402953   -3.775056   -0.332839
     29          1           0        3.600761   -0.690157    1.062074
     30          1           0        0.514840   -2.358097   -1.435231
     31          1           0        1.782807   -4.471654   -1.551437
     32          1           0        3.963923   -4.706428   -0.398055
     33          6           0        1.972861    1.068372   -0.045814
     34          6           0        2.971482    1.350948   -0.972341
     35          6           0        1.683086    2.012203    0.939258
     36          6           0        3.676780    2.543988   -0.910119
     37          6           0        2.365608    3.214996    0.992156
     38          6           0        3.371443    3.483300    0.069272
     39          1           0        3.205268    0.621566   -1.744392
     40          1           0        0.904271    1.798314    1.667748
     41          1           0        4.460878    2.747602   -1.639197
     42          1           0        2.139895    3.954598    1.756001
     43          8           0        4.022986    4.680331    0.173244
     44          1           0        4.695287    4.738350   -0.517835
     45          8           0        5.097214   -2.751708    1.053752
     46          1           0        5.479651   -3.631493    0.941087
 ---------------------------------------------------------------------

 SCF Done:  E(RLC-wHPBE) =  -1130.49382733     A.U. after   14 cycles

 The electronic state is 1-A.
 Alpha  occ. eigenvalues --  -18.88722 -18.88358 -14.12059 -10.05201 -10.04918
 Alpha  occ. eigenvalues --  -10.03225 -10.02962 -10.02565  -9.99896  -9.99647
 Alpha  occ. eigenvalues --   -9.99561  -9.99501  -9.99402  -9.99244  -9.99003
 Alpha  occ. eigenvalues --   -9.98926  -9.98915  -9.98850  -9.98846  -9.98733
 Alpha  occ. eigenvalues --   -9.98732  -9.98717  -9.98664  -9.98658  -9.98525
 Alpha  occ. eigenvalues --   -9.98044  -9.97981  -1.08445  -1.08092  -0.99518
 Alpha  occ. eigenvalues --   -0.90104  -0.89238  -0.88486  -0.87067  -0.81410
 Alpha  occ. eigenvalues --   -0.79597  -0.79233  -0.78463  -0.78309  -0.77771
 Alpha  occ. eigenvalues --   -0.76922  -0.74173  -0.68638  -0.68140  -0.66738
 Alpha  occ. eigenvalues --   -0.65972  -0.65119  -0.64113  -0.63648  -0.62342
 Alpha  occ. eigenvalues --   -0.60351  -0.59646  -0.58682  -0.57173  -0.54796
 Alpha  occ. eigenvalues --   -0.53702  -0.53505  -0.52410  -0.51601  -0.51085
 Alpha  occ. eigenvalues --   -0.49716  -0.49229  -0.48855  -0.48364  -0.48094
 Alpha  occ. eigenvalues --   -0.47785  -0.47314  -0.46929  -0.46742  -0.46489
 Alpha  occ. eigenvalues --   -0.45973  -0.44607  -0.44056  -0.43730  -0.42743
 Alpha  occ. eigenvalues --   -0.42588  -0.41994  -0.41002  -0.40304  -0.40102
 Alpha  occ. eigenvalues --   -0.39602  -0.39404  -0.38874  -0.38389  -0.36321
 Alpha  occ. eigenvalues --   -0.33614  -0.32573  -0.31754  -0.31689  -0.30876
 Alpha  occ. eigenvalues --   -0.29452  -0.28591  -0.23906
 Alpha virt. eigenvalues --    0.01432   0.02422   0.03431   0.04059   0.04477
 Alpha virt. eigenvalues --    0.05357   0.05763   0.08195   0.08493   0.08695
 Alpha virt. eigenvalues --    0.10650   0.11228   0.11719   0.12214   0.12998

 Mulliken charges:
               1
     1  C   -0.086341
     2  C   -0.121953
     3  C   -0.133185
     4  C   -0.086556
     5  C   -0.001854
     6  C   -0.133383
     7  H    0.103963
     8  H    0.126716
     9  H    0.101015
    10  H    0.126392
    11  C    0.037510
    12  C   -0.153235
    13  C   -0.157138
    14  C   -0.108670
    15  C   -0.131167
    16  C   -0.017556
    17  H    0.122081
    18  H    0.120877
    19  H    0.137797
    20  H    0.151810
    21  H    0.101161
    22  N   -0.003294
    23  C    0.050560
    24  C   -0.207007
    25  C   -0.181703
    26  C    0.066089
    27  C   -0.116823
    28  C   -0.152890
    29  H    0.155114
    30  H    0.155894
    31  H    0.100523
    32  H    0.098832
    33  C   -0.212443
    34  C   -0.033252
    35  C   -0.007715
    36  C   -0.181560
    37  C   -0.212297
    38  C    0.129849
    39  H    0.134502
    40  H    0.131736
    41  H    0.106988
    42  H    0.117622
    43  O   -0.239337
    44  H    0.268929
    45  O   -0.235393
    46  H    0.268790
 Sum of Mulliken charges =  -0.00000

 Dipole moment (field-independent basis, Debye):
    X=              1.3738    Y=             -0.9874    Z=             -1.4397  Tot=              2.2215
 Quadrupole moment (field-independent basis, Debye-Ang):
   XX=           -138.1031   YY=           -146.2318   ZZ=           -152.3569
   XY=             -3.4908   XZ=             -8.5368   YZ=             -6.7998

 Normal termination of Gaussian 16 at Sun Jan 17 23:31:46 2021.
