 Gaussian 16, Revision A.03,
 Gaussian 16:  EM64L-G16RevA.03 25-Dec-2016

 ----------------------------------------------------------------------
 #P LC-wHPBE/TZVP iop(3/107=0221900000, 3/108=0221900000) scf=(conver=6
 ,fermi,ndamp=35,noincfock,novaracc,vshift=500,xqc)
 ----------------------------------------------------------------------

 ----------------
 H19 C24 S2 N1 O2
 ----------------
 Symbolic Z-matrix:
 Charge =  0 Multiplicity = 1

                         Standard orientation:
 ---------------------------------------------------------------------
 Center     Atomic      Atomic             Coordinates (Angstroms)
 Number     Number       Type             X           Y           Z
 ---------------------------------------------------------------------
      1          6           0        6.544630   -1.193879   -0.127010
      2          6           0        5.283469   -0.647909   -0.131523
      3         16           0        3.665919   -1.107322   -1.042984
      4          6           0        4.996815    0.486583    0.537830
      5          6           0        1.475687    0.036886   -0.221747
      6          6           0        1.772288   -1.094442   -0.892846
      7          6           0        7.517398   -0.549399    0.618903
      8          6           0        5.951198    1.159916    1.262339
      9          1           0        2.843406    1.345523    1.332578
     10          6           0        0.186077    0.430997    0.028463
     11          6           0        0.773630   -1.912541   -1.366813
     12          6           0       -0.536910   -1.552052   -1.124661
     13          6           0       -0.845585   -0.387156   -0.425435
     14          1           0       -0.045427    1.339810    0.567415
     15          1           0        0.986976   -2.816418   -1.923251
     16          1           0       -1.342687   -2.175375   -1.484620
     17          6           0        7.223748    0.615229    1.306247
     18          1           0        6.782458   -2.097666   -0.673346
     19          1           0        3.815781   -2.439410   -0.928305
     20          1           0        8.517553   -0.958288    0.663525
     21          1           0        5.730059    2.077989    1.791552
     22          1           0        7.997253    1.105431    1.881471
     23         16           0        3.166075    0.851646    0.124057
     24          7           0       -2.182887   -0.044483   -0.184905
     25          6           0       -3.146505   -1.044921    0.067172
     26          6           0       -4.392012   -0.989098   -0.539344
     27          6           0       -2.878694   -2.090316    0.930362
     28          6           0       -5.345494   -1.946131   -0.285899
     29          6           0       -3.822608   -3.066997    1.170354
     30          6           0       -5.062274   -2.995295    0.567641
     31          1           0       -4.612943   -0.174890   -1.215121
     32          1           0       -1.913696   -2.145516    1.414069
     33          1           0       -6.317156   -1.901598   -0.755555
     34          1           0       -3.591387   -3.881585    1.845380
     35          6           0       -2.575405    1.310294   -0.123192
     36          6           0       -3.391681    1.763268    0.894977
     37          6           0       -2.164040    2.211964   -1.093710
     38          6           0       -3.796835    3.081396    0.942072
     39          6           0       -2.544098    3.531176   -1.038879
     40          6           0       -3.368807    3.972023   -0.020733
     41          1           0       -3.723839    1.071840    1.656403
     42          1           0       -1.529535    1.868488   -1.898614
     43          1           0       -4.442764    3.415230    1.744528
     44          1           0       -2.220724    4.234697   -1.791974
     45          8           0       -3.726245    5.281320   -0.019257
     46          1           0       -4.294203    5.466041    0.728132
     47          8           0       -6.032969   -3.920806    0.776143
     48          1           0       -5.721078   -4.593785    1.380389
 ---------------------------------------------------------------------

 SCF Done:  E(RLC-wHPBE) =  -1926.49910424     A.U. after   17 cycles

 The electronic state is 1-A.
 Alpha  occ. eigenvalues --  -88.25729 -88.25644 -18.90606 -18.90497 -14.13645
 Alpha  occ. eigenvalues --  -10.06991 -10.06886 -10.05025 -10.04445 -10.04378
 Alpha  occ. eigenvalues --  -10.01489 -10.01475 -10.01469 -10.01465 -10.01449
 Alpha  occ. eigenvalues --  -10.01439 -10.01407 -10.01336 -10.01326 -10.01230
 Alpha  occ. eigenvalues --  -10.01153 -10.01068 -10.00984 -10.00929 -10.00921
 Alpha  occ. eigenvalues --  -10.00888 -10.00803 -10.00709 -10.00469  -7.84215
 Alpha  occ. eigenvalues --   -7.84142  -5.86262  -5.86193  -5.86083  -5.86005
 Alpha  occ. eigenvalues --   -5.85319  -5.85243  -1.11025  -1.10919  -1.02069
 Alpha  occ. eigenvalues --   -0.93934  -0.92136  -0.92095  -0.90515  -0.87563
 Alpha  occ. eigenvalues --   -0.82840  -0.82205  -0.81963  -0.81326  -0.81196
 Alpha  occ. eigenvalues --   -0.80652  -0.78766  -0.77644  -0.75476  -0.70775
 Alpha  occ. eigenvalues --   -0.70086  -0.68637  -0.68235  -0.67164  -0.66622
 Alpha  occ. eigenvalues --   -0.65058  -0.63430  -0.62287  -0.62176  -0.60654
 Alpha  occ. eigenvalues --   -0.60151  -0.58662  -0.56896  -0.55332  -0.54448
 Alpha  occ. eigenvalues --   -0.53167  -0.52701  -0.51514  -0.51406  -0.51135
 Alpha  occ. eigenvalues --   -0.50834  -0.50241  -0.49705  -0.49562  -0.49304
 Alpha  occ. eigenvalues --   -0.49055  -0.48904  -0.48442  -0.47256  -0.47007
 Alpha  occ. eigenvalues --   -0.46464  -0.45931  -0.45276  -0.44485  -0.43551
 Alpha  occ. eigenvalues --   -0.43063  -0.42793  -0.42352  -0.41610  -0.41330
 Alpha  occ. eigenvalues --   -0.40966  -0.40726  -0.39583  -0.36816  -0.34775
 Alpha  occ. eigenvalues --   -0.34189  -0.33576  -0.33389  -0.32696  -0.30971
 Alpha  occ. eigenvalues --   -0.30730  -0.30036  -0.25816  -0.24312
 Alpha virt. eigenvalues --    0.02905   0.03863   0.04134   0.04969   0.05136
 Alpha virt. eigenvalues --    0.05291   0.05411   0.07219   0.08744   0.09281
 Alpha virt. eigenvalues --    0.09400   0.09919   0.10793   0.11829   0.12409

 Mulliken charges:
               1
     1  C   -0.079703
     2  C   -0.158954
     3  S    0.152132
     4  C   -0.153949
     5  C   -0.218184
     6  C   -0.156430
     7  C   -0.096288
     8  C   -0.082604
     9  H    0.089227
    10  C   -0.058399
    11  C   -0.083895
    12  C   -0.150340
    13  C    0.029334
    14  H    0.153171
    15  H    0.095955
    16  H    0.152891
    17  C   -0.094968
    18  H    0.101063
    19  H    0.086669
    20  H    0.107263
    21  H    0.101390
    22  H    0.107299
    23  S    0.151207
    24  N   -0.011809
    25  C   -0.146774
    26  C   -0.050644
    27  C   -0.074771
    28  C   -0.209011
    29  C   -0.180882
    30  C    0.121856
    31  H    0.137113
    32  H    0.147527
    33  H    0.120344
    34  H    0.109474
    35  C   -0.141522
    36  C   -0.067638
    37  C   -0.059039
    38  C   -0.175955
    39  C   -0.205852
    40  C    0.117624
    41  H    0.138821
    42  H    0.147576
    43  H    0.110315
    44  H    0.121375
    45  O   -0.238671
    46  H    0.267833
    47  O   -0.239058
    48  H    0.267883
 Sum of Mulliken charges =  -0.00000

 Dipole moment (field-independent basis, Debye):
    X=             -0.8738    Y=             -1.4188    Z=              3.0798  Tot=              3.5017
 Quadrupole moment (field-independent basis, Debye-Ang):
   XX=           -174.7756   YY=           -165.7038   ZZ=           -177.4474
   XY=             -6.9664   XZ=             -5.3413   YZ=              5.2512

 Normal termination of Gaussian 16 at Mon Jan 18 04:44:42 2021.
