 Gaussian 16, Revision A.03,
 Gaussian 16:  EM64L-G16RevA.03 25-Dec-2016

 ----------------------------------------------------------------------
 #P LC-wHPBE/TZVP iop(3/107=0181300000, 3/108=0181300000) scf=(conver=6
 ,fermi,ndamp=35,noincfock,novaracc,vshift=500,xqc)
 ----------------------------------------------------------------------

 ----------------
 H19 C24 S2 N1 O2
 ----------------
 Symbolic Z-matrix:
 Charge =  1 Multiplicity = 2

                         Standard orientation:
 ---------------------------------------------------------------------
 Center     Atomic      Atomic             Coordinates (Angstroms)
 Number     Number       Type             X           Y           Z
 ---------------------------------------------------------------------
      1          6           0        6.544630   -1.193879   -0.127010
      2          6           0        5.283469   -0.647909   -0.131523
      3         16           0        3.665919   -1.107322   -1.042984
      4          6           0        4.996815    0.486583    0.537830
      5          6           0        1.475687    0.036886   -0.221747
      6          6           0        1.772288   -1.094442   -0.892846
      7          6           0        7.517398   -0.549399    0.618903
      8          6           0        5.951198    1.159916    1.262339
      9          1           0        2.843406    1.345523    1.332578
     10          6           0        0.186077    0.430997    0.028463
     11          6           0        0.773630   -1.912541   -1.366813
     12          6           0       -0.536910   -1.552052   -1.124661
     13          6           0       -0.845585   -0.387156   -0.425435
     14          1           0       -0.045427    1.339810    0.567415
     15          1           0        0.986976   -2.816418   -1.923251
     16          1           0       -1.342687   -2.175375   -1.484620
     17          6           0        7.223748    0.615229    1.306247
     18          1           0        6.782458   -2.097666   -0.673346
     19          1           0        3.815781   -2.439410   -0.928305
     20          1           0        8.517553   -0.958288    0.663525
     21          1           0        5.730059    2.077989    1.791552
     22          1           0        7.997253    1.105431    1.881471
     23         16           0        3.166075    0.851646    0.124057
     24          7           0       -2.182887   -0.044483   -0.184905
     25          6           0       -3.146505   -1.044921    0.067172
     26          6           0       -4.392012   -0.989098   -0.539344
     27          6           0       -2.878694   -2.090316    0.930362
     28          6           0       -5.345494   -1.946131   -0.285899
     29          6           0       -3.822608   -3.066997    1.170354
     30          6           0       -5.062274   -2.995295    0.567641
     31          1           0       -4.612943   -0.174890   -1.215121
     32          1           0       -1.913696   -2.145516    1.414069
     33          1           0       -6.317156   -1.901598   -0.755555
     34          1           0       -3.591387   -3.881585    1.845380
     35          6           0       -2.575405    1.310294   -0.123192
     36          6           0       -3.391681    1.763268    0.894977
     37          6           0       -2.164040    2.211964   -1.093710
     38          6           0       -3.796835    3.081396    0.942072
     39          6           0       -2.544098    3.531176   -1.038879
     40          6           0       -3.368807    3.972023   -0.020733
     41          1           0       -3.723839    1.071840    1.656403
     42          1           0       -1.529535    1.868488   -1.898614
     43          1           0       -4.442764    3.415230    1.744528
     44          1           0       -2.220724    4.234697   -1.791974
     45          8           0       -3.726245    5.281320   -0.019257
     46          1           0       -4.294203    5.466041    0.728132
     47          8           0       -6.032969   -3.920806    0.776143
     48          1           0       -5.721078   -4.593785    1.380389
 ---------------------------------------------------------------------

 SCF Done:  E(ULC-wHPBE) =  -1926.19532137     A.U. after   33 cycles
 SCF Done:  E(ULC-wHPBE) =  -1926.20549600     a.u. after   50 cycles

 The electronic state is 2-A.
 Alpha  occ. eigenvalues --  -88.33737 -88.33451 -19.00623 -19.00551 -14.30996
 Alpha  occ. eigenvalues --  -10.18083 -10.18002 -10.16720 -10.16379 -10.16323
 Alpha  occ. eigenvalues --  -10.12908 -10.12826 -10.12602 -10.12522 -10.12250
 Alpha  occ. eigenvalues --  -10.12099 -10.11865 -10.11793 -10.11664 -10.11479
 Alpha  occ. eigenvalues --  -10.11220 -10.11178 -10.11127 -10.08196 -10.08138
 Alpha  occ. eigenvalues --  -10.07360 -10.07350 -10.06536 -10.06488  -7.92196
 Alpha  occ. eigenvalues --   -7.91929  -5.94294  -5.94091  -5.94037  -5.93834
 Alpha  occ. eigenvalues --   -5.93392  -5.93094  -1.20769  -1.20698  -1.16307
 Alpha  occ. eigenvalues --   -1.03626  -1.03305  -1.01689  -0.99423  -0.95955
 Alpha  occ. eigenvalues --   -0.93549  -0.92902  -0.92179  -0.91902  -0.90956
 Alpha  occ. eigenvalues --   -0.88907  -0.88009  -0.85517  -0.84416  -0.81788
 Alpha  occ. eigenvalues --   -0.81161  -0.79896  -0.78828  -0.77451  -0.75099
 Alpha  occ. eigenvalues --   -0.73936  -0.73124  -0.72938  -0.72067  -0.71427
 Alpha  occ. eigenvalues --   -0.70448  -0.68042  -0.66334  -0.66140  -0.65303
 Alpha  occ. eigenvalues --   -0.63601  -0.62542  -0.62413  -0.61922  -0.60829
 Alpha  occ. eigenvalues --   -0.60739  -0.60596  -0.60134  -0.59745  -0.59623
 Alpha  occ. eigenvalues --   -0.58746  -0.58547  -0.58132  -0.57305  -0.57115
 Alpha  occ. eigenvalues --   -0.56341  -0.55414  -0.55006  -0.54535  -0.53921
 Alpha  occ. eigenvalues --   -0.53779  -0.52711  -0.52361  -0.52029  -0.51857
 Alpha  occ. eigenvalues --   -0.50420  -0.49026  -0.48863  -0.47196  -0.45993
 Alpha  occ. eigenvalues --   -0.45269  -0.44763  -0.43429  -0.42564  -0.42032
 Alpha  occ. eigenvalues --   -0.39402  -0.38964  -0.37757  -0.35138
 Alpha virt. eigenvalues --   -0.10634  -0.09745  -0.09236  -0.08541  -0.08181
 Alpha virt. eigenvalues --   -0.05673  -0.05518  -0.05205  -0.02601  -0.01835
 Alpha virt. eigenvalues --   -0.01567  -0.01387  -0.00803   0.00190   0.00513

  Beta  occ. eigenvalues --  -88.33726 -88.33450 -19.00530 -19.00457 -14.30220
  Beta  occ. eigenvalues --  -10.17961 -10.17880 -10.16756 -10.16394 -10.16339
  Beta  occ. eigenvalues --  -10.12795 -10.12715 -10.12503 -10.12421 -10.12126
  Beta  occ. eigenvalues --  -10.11935 -10.11892 -10.11817 -10.11549 -10.11459
  Beta  occ. eigenvalues --  -10.11247 -10.11227 -10.11156 -10.08194 -10.08136
  Beta  occ. eigenvalues --  -10.07362 -10.07347 -10.06533 -10.06487  -7.92184
  Beta  occ. eigenvalues --   -7.91929  -5.94288  -5.94082  -5.94035  -5.93835
  Beta  occ. eigenvalues --   -5.93360  -5.93093  -1.20599  -1.20526  -1.15325
  Beta  occ. eigenvalues --   -1.03422  -1.03109  -1.01452  -0.99335  -0.95836
  Beta  occ. eigenvalues --   -0.93353  -0.92772  -0.92054  -0.91767  -0.90810
  Beta  occ. eigenvalues --   -0.88798  -0.87660  -0.85481  -0.84313  -0.81616
  Beta  occ. eigenvalues --   -0.80950  -0.79679  -0.78647  -0.77292  -0.74930
  Beta  occ. eigenvalues --   -0.73918  -0.73004  -0.72845  -0.71883  -0.71313
  Beta  occ. eigenvalues --   -0.70376  -0.67590  -0.66239  -0.66047  -0.65195
  Beta  occ. eigenvalues --   -0.63401  -0.62434  -0.62279  -0.61760  -0.60736
  Beta  occ. eigenvalues --   -0.60632  -0.60494  -0.59810  -0.59407  -0.59378
  Beta  occ. eigenvalues --   -0.58639  -0.58295  -0.58001  -0.57262  -0.56684
  Beta  occ. eigenvalues --   -0.55988  -0.55308  -0.54928  -0.54170  -0.53577
  Beta  occ. eigenvalues --   -0.53273  -0.52640  -0.52214  -0.51929  -0.51768
  Beta  occ. eigenvalues --   -0.49751  -0.49003  -0.48432  -0.46445  -0.45671
  Beta  occ. eigenvalues --   -0.44999  -0.44345  -0.42352  -0.41869  -0.41263
  Beta  occ. eigenvalues --   -0.39103  -0.38378  -0.35043
  Beta virt. eigenvalues --   -0.23094  -0.10303  -0.09070  -0.08623  -0.08080
  Beta virt. eigenvalues --   -0.07660  -0.05599  -0.05362  -0.04391  -0.02403
  Beta virt. eigenvalues --   -0.01766  -0.01512  -0.01359  -0.00733   0.00257

 Mulliken charges and spin densities:
               1          2
     1  C   -0.064136   0.002383
     2  C   -0.156261   0.000391
     3  S    0.170267   0.017813
     4  C   -0.146064   0.001141
     5  C   -0.226933  -0.052420
     6  C   -0.123867   0.150331
     7  C   -0.089355  -0.000818
     8  C   -0.068820  -0.001441
     9  H    0.104340   0.000441
    10  C   -0.020531   0.086270
    11  C   -0.069752  -0.060725
    12  C   -0.126233   0.115730
    13  C    0.016935  -0.002248
    14  H    0.172938  -0.003637
    15  H    0.130538   0.002774
    16  H    0.176170  -0.005377
    17  C   -0.087506   0.003861
    18  H    0.116017  -0.000171
    19  H    0.109088   0.002000
    20  H    0.127128   0.000035
    21  H    0.113515   0.000043
    22  H    0.126657  -0.000194
    23  S    0.160606   0.001603
    24  N    0.090510   0.340098
    25  C   -0.161554   0.005638
    26  C   -0.029846   0.064980
    27  C   -0.058185   0.073687
    28  C   -0.190241  -0.030223
    29  C   -0.154928  -0.031792
    30  C    0.136390   0.089129
    31  H    0.161853  -0.002850
    32  H    0.172577  -0.003499
    33  H    0.159194   0.001605
    34  H    0.145756   0.001544
    35  C   -0.155201   0.007190
    36  C   -0.044565   0.073182
    37  C   -0.042665   0.065194
    38  C   -0.149930  -0.029297
    39  C   -0.187083  -0.031894
    40  C    0.132291   0.089380
    41  H    0.162053  -0.003488
    42  H    0.173372  -0.003028
    43  H    0.146988   0.001480
    44  H    0.159480   0.001617
    45  O   -0.192198   0.032752
    46  H    0.286840  -0.000792
    47  O   -0.192482   0.032388
    48  H    0.286832  -0.000783
 Sum of Mulliken charges =   1.00000   1.00000

 Dipole moment (field-independent basis, Debye):
    X=             -7.2400    Y=             -1.4315    Z=              3.0314  Tot=              7.9785
 Quadrupole moment (field-independent basis, Debye-Ang):
   XX=            -89.6906   YY=           -126.7349   ZZ=           -167.7276
   XY=             -6.5884   XZ=             -7.3083   YZ=              4.6833

 Normal termination of Gaussian 16 at Mon Jan 18 14:02:47 2021.
