 Gaussian 16, Revision A.03,
 Gaussian 16:  EM64L-G16RevA.03 25-Dec-2016

 ----------------------------------------------------------------------
 #P LC-wHPBE/TZVP iop(3/107=0183600000, 3/108=0183600000) scf=(conver=6
 ,fermi,ndamp=35,noincfock,novaracc,vshift=500,xqc)
 ----------------------------------------------------------------------

 ----------------
 H19 C24 S2 N1 O2
 ----------------
 Symbolic Z-matrix:
 Charge =  0 Multiplicity = 1

                         Standard orientation:
 ---------------------------------------------------------------------
 Center     Atomic      Atomic             Coordinates (Angstroms)
 Number     Number       Type             X           Y           Z
 ---------------------------------------------------------------------
      1          6           0        6.544630   -1.193879   -0.127010
      2          6           0        5.283469   -0.647909   -0.131523
      3         16           0        3.665919   -1.107322   -1.042984
      4          6           0        4.996815    0.486583    0.537830
      5          6           0        1.475687    0.036886   -0.221747
      6          6           0        1.772288   -1.094442   -0.892846
      7          6           0        7.517398   -0.549399    0.618903
      8          6           0        5.951198    1.159916    1.262339
      9          1           0        2.843406    1.345523    1.332578
     10          6           0        0.186077    0.430997    0.028463
     11          6           0        0.773630   -1.912541   -1.366813
     12          6           0       -0.536910   -1.552052   -1.124661
     13          6           0       -0.845585   -0.387156   -0.425435
     14          1           0       -0.045427    1.339810    0.567415
     15          1           0        0.986976   -2.816418   -1.923251
     16          1           0       -1.342687   -2.175375   -1.484620
     17          6           0        7.223748    0.615229    1.306247
     18          1           0        6.782458   -2.097666   -0.673346
     19          1           0        3.815781   -2.439410   -0.928305
     20          1           0        8.517553   -0.958288    0.663525
     21          1           0        5.730059    2.077989    1.791552
     22          1           0        7.997253    1.105431    1.881471
     23         16           0        3.166075    0.851646    0.124057
     24          7           0       -2.182887   -0.044483   -0.184905
     25          6           0       -3.146505   -1.044921    0.067172
     26          6           0       -4.392012   -0.989098   -0.539344
     27          6           0       -2.878694   -2.090316    0.930362
     28          6           0       -5.345494   -1.946131   -0.285899
     29          6           0       -3.822608   -3.066997    1.170354
     30          6           0       -5.062274   -2.995295    0.567641
     31          1           0       -4.612943   -0.174890   -1.215121
     32          1           0       -1.913696   -2.145516    1.414069
     33          1           0       -6.317156   -1.901598   -0.755555
     34          1           0       -3.591387   -3.881585    1.845380
     35          6           0       -2.575405    1.310294   -0.123192
     36          6           0       -3.391681    1.763268    0.894977
     37          6           0       -2.164040    2.211964   -1.093710
     38          6           0       -3.796835    3.081396    0.942072
     39          6           0       -2.544098    3.531176   -1.038879
     40          6           0       -3.368807    3.972023   -0.020733
     41          1           0       -3.723839    1.071840    1.656403
     42          1           0       -1.529535    1.868488   -1.898614
     43          1           0       -4.442764    3.415230    1.744528
     44          1           0       -2.220724    4.234697   -1.791974
     45          8           0       -3.726245    5.281320   -0.019257
     46          1           0       -4.294203    5.466041    0.728132
     47          8           0       -6.032969   -3.920806    0.776143
     48          1           0       -5.721078   -4.593785    1.380389
 ---------------------------------------------------------------------

 SCF Done:  E(RLC-wHPBE) =  -1926.44128913     A.U. after   18 cycles

 The electronic state is 1-A.
 Alpha  occ. eigenvalues --  -88.23504 -88.23421 -18.88590 -18.88483 -14.11638
 Alpha  occ. eigenvalues --  -10.04785 -10.04682 -10.02815 -10.02261 -10.02195
 Alpha  occ. eigenvalues --   -9.99331  -9.99301  -9.99299  -9.99288  -9.99285
 Alpha  occ. eigenvalues --   -9.99275  -9.99250  -9.99175  -9.99147  -9.99053
 Alpha  occ. eigenvalues --   -9.98977  -9.98894  -9.98825  -9.98768  -9.98757
 Alpha  occ. eigenvalues --   -9.98727  -9.98648  -9.98556  -9.98310  -7.81974
 Alpha  occ. eigenvalues --   -7.81902  -5.84063  -5.83996  -5.83891  -5.83815
 Alpha  occ. eigenvalues --   -5.83137  -5.83063  -1.08879  -1.08775  -0.99827
 Alpha  occ. eigenvalues --   -0.91611  -0.89847  -0.89806  -0.88253  -0.85299
 Alpha  occ. eigenvalues --   -0.80625  -0.80024  -0.79785  -0.79154  -0.79027
 Alpha  occ. eigenvalues --   -0.78487  -0.76642  -0.75535  -0.73412  -0.68821
 Alpha  occ. eigenvalues --   -0.68116  -0.66669  -0.66287  -0.65214  -0.64680
 Alpha  occ. eigenvalues --   -0.63149  -0.61570  -0.60471  -0.60352  -0.58796
 Alpha  occ. eigenvalues --   -0.58386  -0.56860  -0.55125  -0.53582  -0.52706
 Alpha  occ. eigenvalues --   -0.51471  -0.51000  -0.49827  -0.49724  -0.49453
 Alpha  occ. eigenvalues --   -0.49136  -0.48552  -0.48038  -0.47895  -0.47624
 Alpha  occ. eigenvalues --   -0.47362  -0.47158  -0.46819  -0.45586  -0.45438
 Alpha  occ. eigenvalues --   -0.44812  -0.44258  -0.43664  -0.42946  -0.42105
 Alpha  occ. eigenvalues --   -0.41543  -0.41174  -0.40739  -0.40190  -0.39874
 Alpha  occ. eigenvalues --   -0.39499  -0.39268  -0.38115  -0.35392  -0.33492
 Alpha  occ. eigenvalues --   -0.32975  -0.32373  -0.32207  -0.31507  -0.29809
 Alpha  occ. eigenvalues --   -0.29584  -0.28935  -0.24859  -0.23364
 Alpha virt. eigenvalues --    0.02069   0.03004   0.03274   0.04077   0.04258
 Alpha virt. eigenvalues --    0.04367   0.04485   0.06288   0.07769   0.08347
 Alpha virt. eigenvalues --    0.08465   0.08949   0.09881   0.10950   0.11540

 Mulliken charges:
               1
     1  C   -0.078321
     2  C   -0.151395
     3  S    0.140846
     4  C   -0.146279
     5  C   -0.210600
     6  C   -0.144902
     7  C   -0.091913
     8  C   -0.081250
     9  H    0.089655
    10  C   -0.059762
    11  C   -0.083935
    12  C   -0.147098
    13  C    0.031543
    14  H    0.146969
    15  H    0.091199
    16  H    0.147034
    17  C   -0.090561
    18  H    0.096841
    19  H    0.087126
    20  H    0.103185
    21  H    0.097157
    22  H    0.103220
    23  S    0.140164
    24  N    0.000478
    25  C   -0.144186
    26  C   -0.049058
    27  C   -0.073256
    28  C   -0.205194
    29  C   -0.176574
    30  C    0.124190
    31  H    0.131481
    32  H    0.141951
    33  H    0.115587
    34  H    0.105045
    35  C   -0.139370
    36  C   -0.064707
    37  C   -0.058585
    38  C   -0.171726
    39  C   -0.201944
    40  C    0.119980
    41  H    0.133293
    42  H    0.141842
    43  H    0.105834
    44  H    0.116685
    45  O   -0.237746
    46  H    0.267576
    47  O   -0.238151
    48  H    0.267630
 Sum of Mulliken charges =  -0.00000

 Dipole moment (field-independent basis, Debye):
    X=             -0.9409    Y=             -1.3904    Z=              3.0630  Tot=              3.4929
 Quadrupole moment (field-independent basis, Debye-Ang):
   XX=           -174.8434   YY=           -165.6975   ZZ=           -177.7091
   XY=             -6.8495   XZ=             -5.3707   YZ=              5.1468

 Normal termination of Gaussian 16 at Mon Jan 18 14:17:06 2021.
