 Gaussian 16, Revision A.03,
 Gaussian 16:  EM64L-G16RevA.03 25-Dec-2016

 ----------------------------------------------------------------------
 #P LC-wHPBE/TZVP iop(3/107=0115700000, 3/108=0115700000) scf=(conver=6
 ,fermi,ndamp=35,noincfock,novaracc,vshift=500,xqc)
 ----------------------------------------------------------------------

 ----------------
 H19 C24 S2 N1 O2
 ----------------
 Symbolic Z-matrix:
 Charge =  0 Multiplicity = 1

                         Standard orientation:
 ---------------------------------------------------------------------
 Center     Atomic      Atomic             Coordinates (Angstroms)
 Number     Number       Type             X           Y           Z
 ---------------------------------------------------------------------
      1          6           0        6.544630   -1.193879   -0.127010
      2          6           0        5.283469   -0.647909   -0.131523
      3         16           0        3.665919   -1.107322   -1.042984
      4          6           0        4.996815    0.486583    0.537830
      5          6           0        1.475687    0.036886   -0.221747
      6          6           0        1.772288   -1.094442   -0.892846
      7          6           0        7.517398   -0.549399    0.618903
      8          6           0        5.951198    1.159916    1.262339
      9          1           0        2.843406    1.345523    1.332578
     10          6           0        0.186077    0.430997    0.028463
     11          6           0        0.773630   -1.912541   -1.366813
     12          6           0       -0.536910   -1.552052   -1.124661
     13          6           0       -0.845585   -0.387156   -0.425435
     14          1           0       -0.045427    1.339810    0.567415
     15          1           0        0.986976   -2.816418   -1.923251
     16          1           0       -1.342687   -2.175375   -1.484620
     17          6           0        7.223748    0.615229    1.306247
     18          1           0        6.782458   -2.097666   -0.673346
     19          1           0        3.815781   -2.439410   -0.928305
     20          1           0        8.517553   -0.958288    0.663525
     21          1           0        5.730059    2.077989    1.791552
     22          1           0        7.997253    1.105431    1.881471
     23         16           0        3.166075    0.851646    0.124057
     24          7           0       -2.182887   -0.044483   -0.184905
     25          6           0       -3.146505   -1.044921    0.067172
     26          6           0       -4.392012   -0.989098   -0.539344
     27          6           0       -2.878694   -2.090316    0.930362
     28          6           0       -5.345494   -1.946131   -0.285899
     29          6           0       -3.822608   -3.066997    1.170354
     30          6           0       -5.062274   -2.995295    0.567641
     31          1           0       -4.612943   -0.174890   -1.215121
     32          1           0       -1.913696   -2.145516    1.414069
     33          1           0       -6.317156   -1.901598   -0.755555
     34          1           0       -3.591387   -3.881585    1.845380
     35          6           0       -2.575405    1.310294   -0.123192
     36          6           0       -3.391681    1.763268    0.894977
     37          6           0       -2.164040    2.211964   -1.093710
     38          6           0       -3.796835    3.081396    0.942072
     39          6           0       -2.544098    3.531176   -1.038879
     40          6           0       -3.368807    3.972023   -0.020733
     41          1           0       -3.723839    1.071840    1.656403
     42          1           0       -1.529535    1.868488   -1.898614
     43          1           0       -4.442764    3.415230    1.744528
     44          1           0       -2.220724    4.234697   -1.791974
     45          8           0       -3.726245    5.281320   -0.019257
     46          1           0       -4.294203    5.466041    0.728132
     47          8           0       -6.032969   -3.920806    0.776143
     48          1           0       -5.721078   -4.593785    1.380389
 ---------------------------------------------------------------------

 SCF Done:  E(RLC-wHPBE) =  -1926.33682560     A.U. after   18 cycles

 The electronic state is 1-A.
 Alpha  occ. eigenvalues --  -88.19592 -88.19513 -18.84943 -18.84840 -14.08063
 Alpha  occ. eigenvalues --  -10.00892 -10.00794  -9.98910  -9.98396  -9.98332
 Alpha  occ. eigenvalues --   -9.95506  -9.95464  -9.95457  -9.95452  -9.95431
 Alpha  occ. eigenvalues --   -9.95419  -9.95415  -9.95346  -9.95296  -9.95206
 Alpha  occ. eigenvalues --   -9.95131  -9.95051  -9.94993  -9.94931  -9.94922
 Alpha  occ. eigenvalues --   -9.94890  -9.94827  -9.94738  -9.94486  -7.78052
 Alpha  occ. eigenvalues --   -7.77985  -5.80184  -5.80121  -5.80021  -5.79951
 Alpha  occ. eigenvalues --   -5.79285  -5.79216  -1.05049  -1.04949  -0.95890
 Alpha  occ. eigenvalues --   -0.87543  -0.85812  -0.85771  -0.84248  -0.81281
 Alpha  occ. eigenvalues --   -0.76655  -0.76098  -0.75858  -0.75235  -0.75110
 Alpha  occ. eigenvalues --   -0.74571  -0.72768  -0.71678  -0.69610  -0.65155
 Alpha  occ. eigenvalues --   -0.64430  -0.62985  -0.62617  -0.61538  -0.61019
 Alpha  occ. eigenvalues --   -0.59525  -0.58009  -0.56962  -0.56824  -0.55226
 Alpha  occ. eigenvalues --   -0.54919  -0.53337  -0.51665  -0.50166  -0.49295
 Alpha  occ. eigenvalues --   -0.48106  -0.47646  -0.46492  -0.46394  -0.46116
 Alpha  occ. eigenvalues --   -0.45786  -0.45221  -0.44759  -0.44620  -0.44345
 Alpha  occ. eigenvalues --   -0.44019  -0.43693  -0.43538  -0.42317  -0.42268
 Alpha  occ. eigenvalues --   -0.41514  -0.40926  -0.40388  -0.39852  -0.39151
 Alpha  occ. eigenvalues --   -0.38418  -0.37928  -0.37472  -0.37275  -0.36875
 Alpha  occ. eigenvalues --   -0.36494  -0.36283  -0.35043  -0.32381  -0.30679
 Alpha  occ. eigenvalues --   -0.30248  -0.29682  -0.29538  -0.28834  -0.27229
 Alpha  occ. eigenvalues --   -0.27008  -0.26460  -0.22603  -0.21211
 Alpha virt. eigenvalues --   -0.00069   0.00836   0.01148   0.01851   0.02071
 Alpha virt. eigenvalues --    0.02128   0.02172   0.04009   0.05407   0.06078
 Alpha virt. eigenvalues --    0.06196   0.06562   0.07674   0.08761   0.09349

 Mulliken charges:
               1
     1  C   -0.073992
     2  C   -0.146298
     3  S    0.125362
     4  C   -0.140898
     5  C   -0.204134
     6  C   -0.135267
     7  C   -0.088854
     8  C   -0.076942
     9  H    0.090627
    10  C   -0.057392
    11  C   -0.078286
    12  C   -0.144977
    13  C    0.030063
    14  H    0.140257
    15  H    0.087783
    16  H    0.140902
    17  C   -0.087465
    18  H    0.093874
    19  H    0.088075
    20  H    0.100046
    21  H    0.094187
    22  H    0.100080
    23  S    0.125092
    24  N    0.017234
    25  C   -0.142965
    26  C   -0.051333
    27  C   -0.075419
    28  C   -0.196510
    29  C   -0.167717
    30  C    0.124064
    31  H    0.126070
    32  H    0.136526
    33  H    0.111984
    34  H    0.101213
    35  C   -0.139110
    36  C   -0.064326
    37  C   -0.062622
    38  C   -0.163163
    39  C   -0.193353
    40  C    0.120112
    41  H    0.128072
    42  H    0.136204
    43  H    0.101954
    44  H    0.113124
    45  O   -0.238395
    46  H    0.267643
    47  O   -0.238827
    48  H    0.267698
 Sum of Mulliken charges =  -0.00000

 Dipole moment (field-independent basis, Debye):
    X=             -1.0603    Y=             -1.3448    Z=              3.0379  Tot=              3.4873
 Quadrupole moment (field-independent basis, Debye-Ang):
   XX=           -175.0424   YY=           -165.7145   ZZ=           -178.1444
   XY=             -6.6799   XZ=             -5.4417   YZ=              4.9836

 Normal termination of Gaussian 16 at Mon Jan 18 09:39:33 2021.
