 Gaussian 16, Revision A.03,
 Gaussian 16:  EM64L-G16RevA.03 25-Dec-2016

 ----------------------------------------------------------------------
 #P LC-wHPBE/TZVP iop(3/107=0176500000, 3/108=0176500000) scf=(conver=6
 ,fermi,ndamp=35,noincfock,novaracc,vshift=500,xqc)
 ----------------------------------------------------------------------

 ----------------
 H19 C24 S2 N1 O2
 ----------------
 Symbolic Z-matrix:
 Charge =  1 Multiplicity = 2

                         Standard orientation:
 ---------------------------------------------------------------------
 Center     Atomic      Atomic             Coordinates (Angstroms)
 Number     Number       Type             X           Y           Z
 ---------------------------------------------------------------------
      1          6           0        6.544630   -1.193879   -0.127010
      2          6           0        5.283469   -0.647909   -0.131523
      3         16           0        3.665919   -1.107322   -1.042984
      4          6           0        4.996815    0.486583    0.537830
      5          6           0        1.475687    0.036886   -0.221747
      6          6           0        1.772288   -1.094442   -0.892846
      7          6           0        7.517398   -0.549399    0.618903
      8          6           0        5.951198    1.159916    1.262339
      9          1           0        2.843406    1.345523    1.332578
     10          6           0        0.186077    0.430997    0.028463
     11          6           0        0.773630   -1.912541   -1.366813
     12          6           0       -0.536910   -1.552052   -1.124661
     13          6           0       -0.845585   -0.387156   -0.425435
     14          1           0       -0.045427    1.339810    0.567415
     15          1           0        0.986976   -2.816418   -1.923251
     16          1           0       -1.342687   -2.175375   -1.484620
     17          6           0        7.223748    0.615229    1.306247
     18          1           0        6.782458   -2.097666   -0.673346
     19          1           0        3.815781   -2.439410   -0.928305
     20          1           0        8.517553   -0.958288    0.663525
     21          1           0        5.730059    2.077989    1.791552
     22          1           0        7.997253    1.105431    1.881471
     23         16           0        3.166075    0.851646    0.124057
     24          7           0       -2.182887   -0.044483   -0.184905
     25          6           0       -3.146505   -1.044921    0.067172
     26          6           0       -4.392012   -0.989098   -0.539344
     27          6           0       -2.878694   -2.090316    0.930362
     28          6           0       -5.345494   -1.946131   -0.285899
     29          6           0       -3.822608   -3.066997    1.170354
     30          6           0       -5.062274   -2.995295    0.567641
     31          1           0       -4.612943   -0.174890   -1.215121
     32          1           0       -1.913696   -2.145516    1.414069
     33          1           0       -6.317156   -1.901598   -0.755555
     34          1           0       -3.591387   -3.881585    1.845380
     35          6           0       -2.575405    1.310294   -0.123192
     36          6           0       -3.391681    1.763268    0.894977
     37          6           0       -2.164040    2.211964   -1.093710
     38          6           0       -3.796835    3.081396    0.942072
     39          6           0       -2.544098    3.531176   -1.038879
     40          6           0       -3.368807    3.972023   -0.020733
     41          1           0       -3.723839    1.071840    1.656403
     42          1           0       -1.529535    1.868488   -1.898614
     43          1           0       -4.442764    3.415230    1.744528
     44          1           0       -2.220724    4.234697   -1.791974
     45          8           0       -3.726245    5.281320   -0.019257
     46          1           0       -4.294203    5.466041    0.728132
     47          8           0       -6.032969   -3.920806    0.776143
     48          1           0       -5.721078   -4.593785    1.380389
 ---------------------------------------------------------------------

 SCF Done:  E(ULC-wHPBE) =  -1926.18935059     A.U. after   33 cycles
 SCF Done:  E(ULC-wHPBE) =  -1926.19842241     a.u. after   38 cycles

 The electronic state is 2-A.
 Alpha  occ. eigenvalues --  -88.33473 -88.33183 -19.00369 -19.00295 -14.30667
 Alpha  occ. eigenvalues --  -10.17797 -10.17714 -10.16431 -10.16092 -10.16034
 Alpha  occ. eigenvalues --  -10.12617 -10.12533 -10.12312 -10.12231 -10.11959
 Alpha  occ. eigenvalues --  -10.11813 -10.11588 -10.11515 -10.11391 -10.11203
 Alpha  occ. eigenvalues --  -10.10944 -10.10910 -10.10850 -10.07939 -10.07879
 Alpha  occ. eigenvalues --  -10.07100 -10.07090 -10.06278 -10.06229  -7.91930
 Alpha  occ. eigenvalues --   -7.91659  -5.94032  -5.93830  -5.93771  -5.93570
 Alpha  occ. eigenvalues --   -5.93133  -5.92831  -1.20497  -1.20424  -1.15984
 Alpha  occ. eigenvalues --   -1.03329  -1.03003  -1.01394  -0.99140  -0.95673
 Alpha  occ. eigenvalues --   -0.93260  -0.92614  -0.91891  -0.91616  -0.90676
 Alpha  occ. eigenvalues --   -0.88635  -0.87734  -0.85254  -0.84151  -0.81522
 Alpha  occ. eigenvalues --   -0.80893  -0.79629  -0.78566  -0.77190  -0.74844
 Alpha  occ. eigenvalues --   -0.73691  -0.72871  -0.72691  -0.71820  -0.71185
 Alpha  occ. eigenvalues --   -0.70206  -0.67789  -0.66095  -0.65908  -0.65066
 Alpha  occ. eigenvalues --   -0.63367  -0.62306  -0.62177  -0.61690  -0.60600
 Alpha  occ. eigenvalues --   -0.60506  -0.60364  -0.59895  -0.59504  -0.59396
 Alpha  occ. eigenvalues --   -0.58527  -0.58320  -0.57913  -0.57091  -0.56890
 Alpha  occ. eigenvalues --   -0.56118  -0.55202  -0.54804  -0.54316  -0.53699
 Alpha  occ. eigenvalues --   -0.53557  -0.52508  -0.52162  -0.51823  -0.51650
 Alpha  occ. eigenvalues --   -0.50209  -0.48845  -0.48666  -0.47002  -0.45812
 Alpha  occ. eigenvalues --   -0.45091  -0.44585  -0.43260  -0.42396  -0.41867
 Alpha  occ. eigenvalues --   -0.39249  -0.38813  -0.37605  -0.35009
 Alpha virt. eigenvalues --   -0.10751  -0.09860  -0.09350  -0.08668  -0.08308
 Alpha virt. eigenvalues --   -0.05814  -0.05653  -0.05339  -0.02747  -0.01980
 Alpha virt. eigenvalues --   -0.01702  -0.01522  -0.00929   0.00058   0.00387

  Beta  occ. eigenvalues --  -88.33462 -88.33182 -19.00275 -19.00200 -14.29899
  Beta  occ. eigenvalues --  -10.17675 -10.17592 -10.16466 -10.16105 -10.16048
  Beta  occ. eigenvalues --  -10.12505 -10.12424 -10.12214 -10.12131 -10.11836
  Beta  occ. eigenvalues --  -10.11650 -10.11614 -10.11538 -10.11272 -10.11187
  Beta  occ. eigenvalues --  -10.10970 -10.10957 -10.10878 -10.07936 -10.07877
  Beta  occ. eigenvalues --  -10.07102 -10.07088 -10.06274 -10.06229  -7.91918
  Beta  occ. eigenvalues --   -7.91659  -5.94026  -5.93821  -5.93770  -5.93571
  Beta  occ. eigenvalues --   -5.93101  -5.92830  -1.20326  -1.20252  -1.15010
  Beta  occ. eigenvalues --   -1.03125  -1.02808  -1.01158  -0.99053  -0.95554
  Beta  occ. eigenvalues --   -0.93063  -0.92484  -0.91766  -0.91481  -0.90531
  Beta  occ. eigenvalues --   -0.88527  -0.87389  -0.85218  -0.84048  -0.81352
  Beta  occ. eigenvalues --   -0.80684  -0.79413  -0.78386  -0.77031  -0.74675
  Beta  occ. eigenvalues --   -0.73673  -0.72751  -0.72598  -0.71637  -0.71072
  Beta  occ. eigenvalues --   -0.70134  -0.67344  -0.66001  -0.65814  -0.64959
  Beta  occ. eigenvalues --   -0.63169  -0.62200  -0.62044  -0.61529  -0.60508
  Beta  occ. eigenvalues --   -0.60402  -0.60265  -0.59574  -0.59179  -0.59140
  Beta  occ. eigenvalues --   -0.58423  -0.58069  -0.57782  -0.57048  -0.56466
  Beta  occ. eigenvalues --   -0.55771  -0.55097  -0.54727  -0.53952  -0.53363
  Beta  occ. eigenvalues --   -0.53059  -0.52441  -0.52016  -0.51723  -0.51562
  Beta  occ. eigenvalues --   -0.49557  -0.48822  -0.48248  -0.46267  -0.45492
  Beta  occ. eigenvalues --   -0.44821  -0.44174  -0.42202  -0.41710  -0.41118
  Beta  occ. eigenvalues --   -0.38954  -0.38236  -0.34911
  Beta virt. eigenvalues --   -0.23148  -0.10424  -0.09191  -0.08743  -0.08214
  Beta virt. eigenvalues --   -0.07796  -0.05740  -0.05503  -0.04539  -0.02550
  Beta virt. eigenvalues --   -0.01910  -0.01648  -0.01493  -0.00859   0.00124

 Mulliken charges and spin densities:
               1          2
     1  C   -0.063826   0.002412
     2  C   -0.155641   0.000306
     3  S    0.169355   0.018442
     4  C   -0.145408   0.001281
     5  C   -0.225880  -0.050727
     6  C   -0.123104   0.149096
     7  C   -0.088947  -0.000788
     8  C   -0.068505  -0.001458
     9  H    0.104474   0.000478
    10  C   -0.020786   0.084503
    11  C   -0.069410  -0.059319
    12  C   -0.126066   0.114624
    13  C    0.017329  -0.000806
    14  H    0.172235  -0.003580
    15  H    0.130096   0.002707
    16  H    0.175543  -0.005334
    17  C   -0.087080   0.003984
    18  H    0.115709  -0.000176
    19  H    0.109221   0.002076
    20  H    0.126824   0.000031
    21  H    0.113211   0.000041
    22  H    0.126358  -0.000197
    23  S    0.159485   0.001820
    24  N    0.090568   0.336767
    25  C   -0.161022   0.006868
    26  C   -0.029967   0.064056
    27  C   -0.058291   0.072762
    28  C   -0.189570  -0.029158
    29  C   -0.154189  -0.030737
    30  C    0.136387   0.088376
    31  H    0.161265  -0.002817
    32  H    0.171966  -0.003465
    33  H    0.158769   0.001560
    34  H    0.145330   0.001500
    35  C   -0.154671   0.008402
    36  C   -0.044564   0.072163
    37  C   -0.042906   0.064218
    38  C   -0.149211  -0.028202
    39  C   -0.186425  -0.030793
    40  C    0.132283   0.088537
    41  H    0.161461  -0.003448
    42  H    0.172738  -0.002989
    43  H    0.146553   0.001435
    44  H    0.159045   0.001572
    45  O   -0.192082   0.032949
    46  H    0.286850  -0.000796
    47  O   -0.192350   0.032610
    48  H    0.286847  -0.000787
 Sum of Mulliken charges =   1.00000   1.00000

 Dipole moment (field-independent basis, Debye):
    X=             -7.2178    Y=             -1.4298    Z=              3.0314  Tot=              7.9580
 Quadrupole moment (field-independent basis, Debye-Ang):
   XX=            -89.5578   YY=           -126.7098   ZZ=           -167.7524
   XY=             -6.5707   XZ=             -7.3089   YZ=              4.6744

 Normal termination of Gaussian 16 at Tue Jan 19 00:33:17 2021.
