 Gaussian 16, Revision A.03,
 Gaussian 16:  EM64L-G16RevA.03 25-Dec-2016

 ----------------------------------------------------------------------
 #P LC-wHPBE/TZVP iop(3/107=0156200000, 3/108=0156200000) scf=(conver=6
 ,fermi,ndamp=35,noincfock,novaracc,vshift=500,xqc)
 ----------------------------------------------------------------------

 ----------------
 H19 C24 S2 N1 O2
 ----------------
 Symbolic Z-matrix:
 Charge =  1 Multiplicity = 2

                         Standard orientation:
 ---------------------------------------------------------------------
 Center     Atomic      Atomic             Coordinates (Angstroms)
 Number     Number       Type             X           Y           Z
 ---------------------------------------------------------------------
      1          6           0        6.544630   -1.193879   -0.127010
      2          6           0        5.283469   -0.647909   -0.131523
      3         16           0        3.665919   -1.107322   -1.042984
      4          6           0        4.996815    0.486583    0.537830
      5          6           0        1.475687    0.036886   -0.221747
      6          6           0        1.772288   -1.094442   -0.892846
      7          6           0        7.517398   -0.549399    0.618903
      8          6           0        5.951198    1.159916    1.262339
      9          1           0        2.843406    1.345523    1.332578
     10          6           0        0.186077    0.430997    0.028463
     11          6           0        0.773630   -1.912541   -1.366813
     12          6           0       -0.536910   -1.552052   -1.124661
     13          6           0       -0.845585   -0.387156   -0.425435
     14          1           0       -0.045427    1.339810    0.567415
     15          1           0        0.986976   -2.816418   -1.923251
     16          1           0       -1.342687   -2.175375   -1.484620
     17          6           0        7.223748    0.615229    1.306247
     18          1           0        6.782458   -2.097666   -0.673346
     19          1           0        3.815781   -2.439410   -0.928305
     20          1           0        8.517553   -0.958288    0.663525
     21          1           0        5.730059    2.077989    1.791552
     22          1           0        7.997253    1.105431    1.881471
     23         16           0        3.166075    0.851646    0.124057
     24          7           0       -2.182887   -0.044483   -0.184905
     25          6           0       -3.146505   -1.044921    0.067172
     26          6           0       -4.392012   -0.989098   -0.539344
     27          6           0       -2.878694   -2.090316    0.930362
     28          6           0       -5.345494   -1.946131   -0.285899
     29          6           0       -3.822608   -3.066997    1.170354
     30          6           0       -5.062274   -2.995295    0.567641
     31          1           0       -4.612943   -0.174890   -1.215121
     32          1           0       -1.913696   -2.145516    1.414069
     33          1           0       -6.317156   -1.901598   -0.755555
     34          1           0       -3.591387   -3.881585    1.845380
     35          6           0       -2.575405    1.310294   -0.123192
     36          6           0       -3.391681    1.763268    0.894977
     37          6           0       -2.164040    2.211964   -1.093710
     38          6           0       -3.796835    3.081396    0.942072
     39          6           0       -2.544098    3.531176   -1.038879
     40          6           0       -3.368807    3.972023   -0.020733
     41          1           0       -3.723839    1.071840    1.656403
     42          1           0       -1.529535    1.868488   -1.898614
     43          1           0       -4.442764    3.415230    1.744528
     44          1           0       -2.220724    4.234697   -1.791974
     45          8           0       -3.726245    5.281320   -0.019257
     46          1           0       -4.294203    5.466041    0.728132
     47          8           0       -6.032969   -3.920806    0.776143
     48          1           0       -5.721078   -4.593785    1.380389
 ---------------------------------------------------------------------

 SCF Done:  E(ULC-wHPBE) =  -1926.16763007     A.U. after   33 cycles
 SCF Done:  E(ULC-wHPBE) =  -1926.16840749     a.u. after    4 cycles

 The electronic state is 2-A.
 Alpha  occ. eigenvalues --  -88.32382 -88.32070 -18.99278 -18.99189 -14.29253
 Alpha  occ. eigenvalues --  -10.16575 -10.16476 -10.15211 -10.14864 -10.14794
 Alpha  occ. eigenvalues --  -10.11376 -10.11277 -10.11072 -10.10980 -10.10718
 Alpha  occ. eigenvalues --  -10.10606 -10.10406 -10.10321 -10.10241 -10.10039
 Alpha  occ. eigenvalues --  -10.09785 -10.09766 -10.09661 -10.06865 -10.06801
 Alpha  occ. eigenvalues --  -10.06020 -10.06009 -10.05205 -10.05154  -7.90832
 Alpha  occ. eigenvalues --   -7.90542  -5.92947  -5.92749  -5.92668  -5.92471
 Alpha  occ. eigenvalues --   -5.92064  -5.91740  -1.19335  -1.19249  -1.14600
 Alpha  occ. eigenvalues --   -1.02077  -1.01715  -1.00136  -0.97962  -0.94491
 Alpha  occ. eigenvalues --   -0.92018  -0.91387  -0.90652  -0.90395  -0.89490
 Alpha  occ. eigenvalues --   -0.87491  -0.86563  -0.84152  -0.83028  -0.80374
 Alpha  occ. eigenvalues --   -0.79737  -0.78471  -0.77437  -0.76069  -0.73739
 Alpha  occ. eigenvalues --   -0.72657  -0.71764  -0.71616  -0.70743  -0.70143
 Alpha  occ. eigenvalues --   -0.69173  -0.66690  -0.65062  -0.64903  -0.64034
 Alpha  occ. eigenvalues --   -0.62351  -0.61278  -0.61137  -0.60686  -0.59605
 Alpha  occ. eigenvalues --   -0.59489  -0.59350  -0.58854  -0.58448  -0.58399
 Alpha  occ. eigenvalues --   -0.57589  -0.57325  -0.56960  -0.56171  -0.55915
 Alpha  occ. eigenvalues --   -0.55151  -0.54274  -0.53925  -0.53352  -0.52736
 Alpha  occ. eigenvalues --   -0.52575  -0.51652  -0.51288  -0.50913  -0.50733
 Alpha  occ. eigenvalues --   -0.49287  -0.48070  -0.47815  -0.46153  -0.44989
 Alpha  occ. eigenvalues --   -0.44286  -0.43791  -0.42513  -0.41631  -0.41149
 Alpha  occ. eigenvalues --   -0.38576  -0.38147  -0.36920  -0.34440
 Alpha virt. eigenvalues --   -0.11285  -0.10385  -0.09862  -0.09237  -0.08890
 Alpha virt. eigenvalues --   -0.06472  -0.06278  -0.05951  -0.03424  -0.02655
 Alpha virt. eigenvalues --   -0.02304  -0.02122  -0.01500  -0.00547  -0.00177

  Beta  occ. eigenvalues --  -88.32369 -88.32069 -18.99182 -18.99093 -14.28518
  Beta  occ. eigenvalues --  -10.16457 -10.16359 -10.15237 -10.14870 -10.14800
  Beta  occ. eigenvalues --  -10.11269 -10.11173 -10.10979 -10.10886 -10.10606
  Beta  occ. eigenvalues --  -10.10449 -10.10428 -10.10339 -10.10105 -10.10039
  Beta  occ. eigenvalues --  -10.09823 -10.09787 -10.09685 -10.06861 -10.06799
  Beta  occ. eigenvalues --  -10.06022 -10.06006 -10.05200 -10.05153  -7.90818
  Beta  occ. eigenvalues --   -7.90541  -5.92940  -5.92740  -5.92666  -5.92471
  Beta  occ. eigenvalues --   -5.92028  -5.91736  -1.19163  -1.19076  -1.13665
  Beta  occ. eigenvalues --   -1.01874  -1.01522  -0.99909  -0.97873  -0.94373
  Beta  occ. eigenvalues --   -0.91823  -0.91255  -0.90528  -0.90262  -0.89346
  Beta  occ. eigenvalues --   -0.87386  -0.86234  -0.84114  -0.82925  -0.80209
  Beta  occ. eigenvalues --   -0.79533  -0.78262  -0.77264  -0.75910  -0.73573
  Beta  occ. eigenvalues --   -0.72638  -0.71647  -0.71526  -0.70563  -0.70036
  Beta  occ. eigenvalues --   -0.69097  -0.66278  -0.64981  -0.64800  -0.63930
  Beta  occ. eigenvalues --   -0.62161  -0.61175  -0.61010  -0.60532  -0.59513
  Beta  occ. eigenvalues --   -0.59399  -0.59258  -0.58545  -0.58182  -0.58083
  Beta  occ. eigenvalues --   -0.57494  -0.57080  -0.56832  -0.56127  -0.55516
  Beta  occ. eigenvalues --   -0.54820  -0.54180  -0.53846  -0.52998  -0.52430
  Beta  occ. eigenvalues --   -0.52107  -0.51591  -0.51152  -0.50813  -0.50645
  Beta  occ. eigenvalues --   -0.48707  -0.48045  -0.47454  -0.45484  -0.44681
  Beta  occ. eigenvalues --   -0.44014  -0.43413  -0.41539  -0.41008  -0.40462
  Beta  occ. eigenvalues --   -0.38300  -0.37617  -0.34314
  Beta virt. eigenvalues --   -0.23399  -0.10973  -0.09743  -0.09283  -0.08816
  Beta virt. eigenvalues --   -0.08413  -0.06394  -0.06158  -0.05209  -0.03231
  Beta virt. eigenvalues --   -0.02582  -0.02254  -0.02092  -0.01428  -0.00481

 Mulliken charges and spin densities:
               1          2
     1  C   -0.062295   0.002583
     2  C   -0.153810  -0.000257
     3  S    0.166465   0.022042
     4  C   -0.143441   0.002300
     5  C   -0.221970  -0.043015
     6  C   -0.120807   0.144349
     7  C   -0.087512  -0.000642
     8  C   -0.066909  -0.001589
     9  H    0.105228   0.000772
    10  C   -0.021517   0.076196
    11  C   -0.067513  -0.053659
    12  C   -0.125443   0.110401
    13  C    0.018463   0.005044
    14  H    0.169580  -0.003304
    15  H    0.128535   0.002367
    16  H    0.173226  -0.005157
    17  C   -0.085543   0.004773
    18  H    0.114837  -0.000197
    19  H    0.109971   0.002665
    20  H    0.125934   0.000006
    21  H    0.112373   0.000030
    22  H    0.125506  -0.000212
    23  S    0.155415   0.003334
    24  N    0.090268   0.321254
    25  C   -0.159059   0.011835
    26  C   -0.030805   0.060169
    27  C   -0.059081   0.068913
    28  C   -0.186617  -0.024744
    29  C   -0.151038  -0.026475
    30  C    0.136111   0.085329
    31  H    0.159041  -0.002669
    32  H    0.169553  -0.003318
    33  H    0.157226   0.001365
    34  H    0.143713   0.001319
    35  C   -0.152630   0.013282
    36  C   -0.044966   0.067681
    37  C   -0.044293   0.059909
    38  C   -0.146182  -0.023665
    39  C   -0.183594  -0.026161
    40  C    0.131958   0.084843
    41  H    0.159172  -0.003260
    42  H    0.170205  -0.002810
    43  H    0.144887   0.001245
    44  H    0.157405   0.001378
    45  O   -0.191856   0.033757
    46  H    0.286886  -0.000810
    47  O   -0.191988   0.033610
    48  H    0.286915  -0.000805
 Sum of Mulliken charges =   1.00000   1.00000

 Dipole moment (field-independent basis, Debye):
    X=             -7.0644    Y=             -1.4324    Z=              3.0320  Tot=              7.8198
 Quadrupole moment (field-independent basis, Debye-Ang):
   XX=            -88.8900   YY=           -126.6613   ZZ=           -167.8545
   XY=             -6.4854   XZ=             -7.2919   YZ=              4.6548

 Normal termination of Gaussian 16 at Mon Jan 18 09:24:03 2021.
