 Gaussian 16, Revision A.03,
 Gaussian 16:  EM64L-G16RevA.03 25-Dec-2016

 ----------------------------------------------------------------------
 #P LC-wHPBE/TZVP iop(3/107=0115700000, 3/108=0115700000) scf=(conver=6
 ,fermi,ndamp=35,noincfock,novaracc,vshift=500,xqc)
 ----------------------------------------------------------------------

 ----------------
 H19 C24 S2 N1 O2
 ----------------
 Symbolic Z-matrix:
 Charge =  1 Multiplicity = 2

                         Standard orientation:
 ---------------------------------------------------------------------
 Center     Atomic      Atomic             Coordinates (Angstroms)
 Number     Number       Type             X           Y           Z
 ---------------------------------------------------------------------
      1          6           0        6.544630   -1.193879   -0.127010
      2          6           0        5.283469   -0.647909   -0.131523
      3         16           0        3.665919   -1.107322   -1.042984
      4          6           0        4.996815    0.486583    0.537830
      5          6           0        1.475687    0.036886   -0.221747
      6          6           0        1.772288   -1.094442   -0.892846
      7          6           0        7.517398   -0.549399    0.618903
      8          6           0        5.951198    1.159916    1.262339
      9          1           0        2.843406    1.345523    1.332578
     10          6           0        0.186077    0.430997    0.028463
     11          6           0        0.773630   -1.912541   -1.366813
     12          6           0       -0.536910   -1.552052   -1.124661
     13          6           0       -0.845585   -0.387156   -0.425435
     14          1           0       -0.045427    1.339810    0.567415
     15          1           0        0.986976   -2.816418   -1.923251
     16          1           0       -1.342687   -2.175375   -1.484620
     17          6           0        7.223748    0.615229    1.306247
     18          1           0        6.782458   -2.097666   -0.673346
     19          1           0        3.815781   -2.439410   -0.928305
     20          1           0        8.517553   -0.958288    0.663525
     21          1           0        5.730059    2.077989    1.791552
     22          1           0        7.997253    1.105431    1.881471
     23         16           0        3.166075    0.851646    0.124057
     24          7           0       -2.182887   -0.044483   -0.184905
     25          6           0       -3.146505   -1.044921    0.067172
     26          6           0       -4.392012   -0.989098   -0.539344
     27          6           0       -2.878694   -2.090316    0.930362
     28          6           0       -5.345494   -1.946131   -0.285899
     29          6           0       -3.822608   -3.066997    1.170354
     30          6           0       -5.062274   -2.995295    0.567641
     31          1           0       -4.612943   -0.174890   -1.215121
     32          1           0       -1.913696   -2.145516    1.414069
     33          1           0       -6.317156   -1.901598   -0.755555
     34          1           0       -3.591387   -3.881585    1.845380
     35          6           0       -2.575405    1.310294   -0.123192
     36          6           0       -3.391681    1.763268    0.894977
     37          6           0       -2.164040    2.211964   -1.093710
     38          6           0       -3.796835    3.081396    0.942072
     39          6           0       -2.544098    3.531176   -1.038879
     40          6           0       -3.368807    3.972023   -0.020733
     41          1           0       -3.723839    1.071840    1.656403
     42          1           0       -1.529535    1.868488   -1.898614
     43          1           0       -4.442764    3.415230    1.744528
     44          1           0       -2.220724    4.234697   -1.791974
     45          8           0       -3.726245    5.281320   -0.019257
     46          1           0       -4.294203    5.466041    0.728132
     47          8           0       -6.032969   -3.920806    0.776143
     48          1           0       -5.721078   -4.593785    1.380389
 ---------------------------------------------------------------------

 SCF Done:  E(ULC-wHPBE) =  -1926.10970191     A.U. after   33 cycles
 SCF Done:  E(ULC-wHPBE) =  -1926.11062935     a.u. after    5 cycles

 The electronic state is 2-A.
 Alpha  occ. eigenvalues --  -88.30493 -88.30126 -18.96919 -18.96766 -14.26076
 Alpha  occ. eigenvalues --  -10.13971 -10.13801 -10.12718 -10.12219 -10.12092
 Alpha  occ. eigenvalues --  -10.08723 -10.08552 -10.08410 -10.08277 -10.08195
 Alpha  occ. eigenvalues --  -10.08173 -10.08064 -10.07882 -10.07756 -10.07740
 Alpha  occ. eigenvalues --  -10.07697 -10.07247 -10.07102 -10.05028 -10.04922
 Alpha  occ. eigenvalues --  -10.04099 -10.04078 -10.03296 -10.03235  -7.88935
 Alpha  occ. eigenvalues --   -7.88600  -5.91063  -5.90873  -5.90741  -5.90554
 Alpha  occ. eigenvalues --   -5.90223  -5.89841  -1.16864  -1.16716  -1.11605
 Alpha  occ. eigenvalues --   -0.99628  -0.98966  -0.97547  -0.95799  -0.92288
 Alpha  occ. eigenvalues --   -0.89383  -0.88832  -0.87993  -0.87860  -0.87146
 Alpha  occ. eigenvalues --   -0.85373  -0.84180  -0.82142  -0.80889  -0.77876
 Alpha  occ. eigenvalues --   -0.77245  -0.75943  -0.75047  -0.73715  -0.71354
 Alpha  occ. eigenvalues --   -0.70760  -0.69311  -0.69236  -0.68367  -0.68021
 Alpha  occ. eigenvalues --   -0.67111  -0.64321  -0.63055  -0.62755  -0.61767
 Alpha  occ. eigenvalues --   -0.60208  -0.59010  -0.58770  -0.58590  -0.57512
 Alpha  occ. eigenvalues --   -0.57216  -0.57039  -0.56556  -0.56212  -0.56057
 Alpha  occ. eigenvalues --   -0.55714  -0.55218  -0.54896  -0.54373  -0.53851
 Alpha  occ. eigenvalues --   -0.53079  -0.52414  -0.51928  -0.51245  -0.50688
 Alpha  occ. eigenvalues --   -0.50305  -0.50060  -0.49492  -0.48819  -0.48589
 Alpha  occ. eigenvalues --   -0.47323  -0.46583  -0.46121  -0.44367  -0.42996
 Alpha  occ. eigenvalues --   -0.42342  -0.41971  -0.40864  -0.39806  -0.39659
 Alpha  occ. eigenvalues --   -0.37207  -0.36788  -0.35283  -0.33348
 Alpha virt. eigenvalues --   -0.12480  -0.11607  -0.10930  -0.10450  -0.10257
 Alpha virt. eigenvalues --   -0.08236  -0.07971  -0.07327  -0.05206  -0.04443
 Alpha virt. eigenvalues --   -0.03614  -0.03416  -0.02817  -0.02009  -0.01402

  Beta  occ. eigenvalues --  -88.30474 -88.30121 -18.96821 -18.96670 -14.25436
  Beta  occ. eigenvalues --  -10.13860 -10.13695 -10.12728 -10.12212 -10.12086
  Beta  occ. eigenvalues --  -10.08628 -10.08462 -10.08328 -10.08197 -10.08110
  Beta  occ. eigenvalues --  -10.08025 -10.07896 -10.07882 -10.07795 -10.07749
  Beta  occ. eigenvalues --  -10.07706 -10.07259 -10.07115 -10.05008 -10.04918
  Beta  occ. eigenvalues --  -10.04101 -10.04075 -10.03287 -10.03233  -7.88916
  Beta  occ. eigenvalues --   -7.88595  -5.91052  -5.90863  -5.90738  -5.90551
  Beta  occ. eigenvalues --   -5.90168  -5.89827  -1.16688  -1.16545  -1.10786
  Beta  occ. eigenvalues --   -0.99423  -0.98783  -0.97344  -0.95690  -0.92161
  Beta  occ. eigenvalues --   -0.89202  -0.88692  -0.87879  -0.87734  -0.87003
  Beta  occ. eigenvalues --   -0.85269  -0.83885  -0.82092  -0.80768  -0.77724
  Beta  occ. eigenvalues --   -0.77054  -0.75753  -0.74894  -0.73557  -0.71198
  Beta  occ. eigenvalues --   -0.70733  -0.69208  -0.69150  -0.68214  -0.67921
  Beta  occ. eigenvalues --   -0.67011  -0.63989  -0.63004  -0.62601  -0.61669
  Beta  occ. eigenvalues --   -0.60039  -0.58906  -0.58658  -0.58460  -0.57426
  Beta  occ. eigenvalues --   -0.57154  -0.56957  -0.56291  -0.56021  -0.55702
  Beta  occ. eigenvalues --   -0.55570  -0.55005  -0.54799  -0.54318  -0.53503
  Beta  occ. eigenvalues --   -0.52732  -0.52349  -0.51829  -0.50990  -0.50358
  Beta  occ. eigenvalues --   -0.50020  -0.49848  -0.49369  -0.48716  -0.48505
  Beta  occ. eigenvalues --   -0.46929  -0.46536  -0.45854  -0.43809  -0.42717
  Beta  occ. eigenvalues --   -0.42056  -0.41702  -0.40091  -0.39584  -0.38844
  Beta  occ. eigenvalues --   -0.37014  -0.36405  -0.33028
  Beta virt. eigenvalues --   -0.23979  -0.12200  -0.11046  -0.10436  -0.10087
  Beta virt. eigenvalues --   -0.09854  -0.08119  -0.07895  -0.06723  -0.04961
  Beta virt. eigenvalues --   -0.04341  -0.03569  -0.03384  -0.02747  -0.01936

 Mulliken charges and spin densities:
               1          2
     1  C   -0.058209   0.002843
     2  C   -0.153237   0.000703
     3  S    0.167687   0.036083
     4  C   -0.142901   0.010240
     5  C   -0.216159  -0.021129
     6  C   -0.121015   0.136058
     7  C   -0.085753   0.000251
     8  C   -0.062345  -0.002325
     9  H    0.108375   0.002674
    10  C   -0.021583   0.054195
    11  C   -0.061649  -0.042931
    12  C   -0.124691   0.102326
    13  C    0.017977   0.013740
    14  H    0.166138  -0.002419
    15  H    0.126987   0.001395
    16  H    0.170403  -0.004712
    17  C   -0.083430   0.008327
    18  H    0.115760  -0.000107
    19  H    0.113006   0.005935
    20  H    0.126625  -0.000087
    21  H    0.113476   0.000124
    22  H    0.126377  -0.000233
    23  S    0.152934   0.012343
    24  N    0.084558   0.278631
    25  C   -0.156464   0.019804
    26  C   -0.034055   0.051866
    27  C   -0.062387   0.060764
    28  C   -0.180811  -0.016288
    29  C   -0.145324  -0.018934
    30  C    0.134075   0.078645
    31  H    0.155646  -0.002330
    32  H    0.165003  -0.002971
    33  H    0.155029   0.000938
    34  H    0.140991   0.000981
    35  C   -0.149344   0.021167
    36  C   -0.048047   0.056742
    37  C   -0.048998   0.049420
    38  C   -0.140971  -0.015058
    39  C   -0.178376  -0.016761
    40  C    0.129635   0.075272
    41  H    0.155428  -0.002758
    42  H    0.165318  -0.002346
    43  H    0.142060   0.000867
    44  H    0.154670   0.000967
    45  O   -0.193224   0.034485
    46  H    0.286679  -0.000819
    47  O   -0.192680   0.035258
    48  H    0.286815  -0.000836
 Sum of Mulliken charges =   1.00000   1.00000

 Dipole moment (field-independent basis, Debye):
    X=             -6.0610    Y=             -1.5083    Z=              3.0430  Tot=              6.9477
 Quadrupole moment (field-independent basis, Debye-Ang):
   XX=            -86.4137   YY=           -127.1953   ZZ=           -168.0410
   XY=             -6.3026   XZ=             -7.0278   YZ=              4.8046

 Normal termination of Gaussian 16 at Mon Jan 18 11:20:53 2021.
