 Gaussian 16, Revision A.03,
 Gaussian 16:  EM64L-G16RevA.03 25-Dec-2016

 ----------------------------------------------------------------------
 #P LC-wHPBE/TZVP iop(3/107=0167500000, 3/108=0167500000) scf=(conver=6
 ,fermi,ndamp=35,noincfock,novaracc,vshift=500,xqc)
 ----------------------------------------------------------------------

 ----------------
 H19 C24 S2 N1 O2
 ----------------
 Symbolic Z-matrix:
 Charge =  1 Multiplicity = 2

                         Standard orientation:
 ---------------------------------------------------------------------
 Center     Atomic      Atomic             Coordinates (Angstroms)
 Number     Number       Type             X           Y           Z
 ---------------------------------------------------------------------
      1          6           0        6.544630   -1.193879   -0.127010
      2          6           0        5.283469   -0.647909   -0.131523
      3         16           0        3.665919   -1.107322   -1.042984
      4          6           0        4.996815    0.486583    0.537830
      5          6           0        1.475687    0.036886   -0.221747
      6          6           0        1.772288   -1.094442   -0.892846
      7          6           0        7.517398   -0.549399    0.618903
      8          6           0        5.951198    1.159916    1.262339
      9          1           0        2.843406    1.345523    1.332578
     10          6           0        0.186077    0.430997    0.028463
     11          6           0        0.773630   -1.912541   -1.366813
     12          6           0       -0.536910   -1.552052   -1.124661
     13          6           0       -0.845585   -0.387156   -0.425435
     14          1           0       -0.045427    1.339810    0.567415
     15          1           0        0.986976   -2.816418   -1.923251
     16          1           0       -1.342687   -2.175375   -1.484620
     17          6           0        7.223748    0.615229    1.306247
     18          1           0        6.782458   -2.097666   -0.673346
     19          1           0        3.815781   -2.439410   -0.928305
     20          1           0        8.517553   -0.958288    0.663525
     21          1           0        5.730059    2.077989    1.791552
     22          1           0        7.997253    1.105431    1.881471
     23         16           0        3.166075    0.851646    0.124057
     24          7           0       -2.182887   -0.044483   -0.184905
     25          6           0       -3.146505   -1.044921    0.067172
     26          6           0       -4.392012   -0.989098   -0.539344
     27          6           0       -2.878694   -2.090316    0.930362
     28          6           0       -5.345494   -1.946131   -0.285899
     29          6           0       -3.822608   -3.066997    1.170354
     30          6           0       -5.062274   -2.995295    0.567641
     31          1           0       -4.612943   -0.174890   -1.215121
     32          1           0       -1.913696   -2.145516    1.414069
     33          1           0       -6.317156   -1.901598   -0.755555
     34          1           0       -3.591387   -3.881585    1.845380
     35          6           0       -2.575405    1.310294   -0.123192
     36          6           0       -3.391681    1.763268    0.894977
     37          6           0       -2.164040    2.211964   -1.093710
     38          6           0       -3.796835    3.081396    0.942072
     39          6           0       -2.544098    3.531176   -1.038879
     40          6           0       -3.368807    3.972023   -0.020733
     41          1           0       -3.723839    1.071840    1.656403
     42          1           0       -1.529535    1.868488   -1.898614
     43          1           0       -4.442764    3.415230    1.744528
     44          1           0       -2.220724    4.234697   -1.791974
     45          8           0       -3.726245    5.281320   -0.019257
     46          1           0       -4.294203    5.466041    0.728132
     47          8           0       -6.032969   -3.920806    0.776143
     48          1           0       -5.721078   -4.593785    1.380389
 ---------------------------------------------------------------------

 SCF Done:  E(ULC-wHPBE) =  -1926.17703556     A.U. after   33 cycles
 SCF Done:  E(ULC-wHPBE) =  -1926.18511649     a.u. after   32 cycles

 The electronic state is 2-A.
 Alpha  occ. eigenvalues --  -88.32985 -88.32686 -18.99889 -18.99811 -14.30044
 Alpha  occ. eigenvalues --  -10.17258 -10.17171 -10.15887 -10.15549 -10.15488
 Alpha  occ. eigenvalues --  -10.12069 -10.11981 -10.11765 -10.11681 -10.11409
 Alpha  occ. eigenvalues --  -10.11274 -10.11067 -10.10991 -10.10879 -10.10685
 Alpha  occ. eigenvalues --  -10.10425 -10.10410 -10.10328 -10.07462 -10.07401
 Alpha  occ. eigenvalues --  -10.06617 -10.06607 -10.05797 -10.05748  -7.91438
 Alpha  occ. eigenvalues --   -7.91160  -5.93546  -5.93346  -5.93279  -5.93079
 Alpha  occ. eigenvalues --   -5.92654  -5.92344  -1.19985  -1.19909  -1.15373
 Alpha  occ. eigenvalues --   -1.02772  -1.02436  -1.00838  -0.98615  -0.95146
 Alpha  occ. eigenvalues --   -0.92712  -0.92072  -0.91346  -0.91077  -0.90150
 Alpha  occ. eigenvalues --   -0.88125  -0.87217  -0.84763  -0.83652  -0.81019
 Alpha  occ. eigenvalues --   -0.80386  -0.79121  -0.78070  -0.76696  -0.74359
 Alpha  occ. eigenvalues --   -0.73232  -0.72388  -0.72221  -0.71350  -0.70726
 Alpha  occ. eigenvalues --   -0.69749  -0.67308  -0.65641  -0.65466  -0.64615
 Alpha  occ. eigenvalues --   -0.62920  -0.61857  -0.61725  -0.61249  -0.60164
 Alpha  occ. eigenvalues --   -0.60062  -0.59922  -0.59440  -0.59045  -0.58961
 Alpha  occ. eigenvalues --   -0.58112  -0.57886  -0.57496  -0.56685  -0.56463
 Alpha  occ. eigenvalues --   -0.55694  -0.54797  -0.54419  -0.53896  -0.53277
 Alpha  occ. eigenvalues --   -0.53131  -0.52128  -0.51781  -0.51427  -0.51253
 Alpha  occ. eigenvalues --   -0.49806  -0.48503  -0.48292  -0.46630  -0.45459
 Alpha  occ. eigenvalues --   -0.44745  -0.44242  -0.42935  -0.42068  -0.41552
 Alpha  occ. eigenvalues --   -0.38956  -0.38523  -0.37309  -0.34760
 Alpha virt. eigenvalues --   -0.10981  -0.10084  -0.09571  -0.08914  -0.08557
 Alpha virt. eigenvalues --   -0.06094  -0.05918  -0.05602  -0.03034  -0.02266
 Alpha virt. eigenvalues --   -0.01963  -0.01782  -0.01175  -0.00201   0.00143

  Beta  occ. eigenvalues --  -88.32973 -88.32686 -18.99794 -18.99716 -14.29290
  Beta  occ. eigenvalues --  -10.17138 -10.17051 -10.15917 -10.15559 -10.15498
  Beta  occ. eigenvalues --  -10.11959 -10.11874 -10.11669 -10.11584 -10.11290
  Beta  occ. eigenvalues --  -10.11114 -10.11091 -10.11011 -10.10752 -10.10676
  Beta  occ. eigenvalues --  -10.10453 -10.10448 -10.10354 -10.07458 -10.07399
  Beta  occ. eigenvalues --  -10.06619 -10.06604 -10.05793 -10.05747  -7.91425
  Beta  occ. eigenvalues --   -7.91160  -5.93540  -5.93337  -5.93278  -5.93080
  Beta  occ. eigenvalues --   -5.92621  -5.92342  -1.19814  -1.19736  -1.14415
  Beta  occ. eigenvalues --   -1.02569  -1.02241  -1.00606  -0.98527  -0.95028
  Beta  occ. eigenvalues --   -0.92517  -0.91941  -0.91222  -0.90943  -0.90005
  Beta  occ. eigenvalues --   -0.88019  -0.86879  -0.84726  -0.83550  -0.80851
  Beta  occ. eigenvalues --   -0.80179  -0.78908  -0.77893  -0.76538  -0.74192
  Beta  occ. eigenvalues --   -0.73214  -0.72269  -0.72130  -0.71168  -0.70616
  Beta  occ. eigenvalues --   -0.69676  -0.66877  -0.65552  -0.65369  -0.64509
  Beta  occ. eigenvalues --   -0.62726  -0.61753  -0.61595  -0.61091  -0.60073
  Beta  occ. eigenvalues --   -0.59964  -0.59827  -0.59124  -0.58744  -0.58681
  Beta  occ. eigenvalues --   -0.58014  -0.57637  -0.57365  -0.56641  -0.56050
  Beta  occ. eigenvalues --   -0.55356  -0.54696  -0.54342  -0.53535  -0.52956
  Beta  occ. eigenvalues --   -0.52647  -0.52065  -0.51639  -0.51327  -0.51165
  Beta  occ. eigenvalues --   -0.49185  -0.48480  -0.47899  -0.45925  -0.45143
  Beta  occ. eigenvalues --   -0.44474  -0.43843  -0.41914  -0.41403  -0.40836
  Beta  occ. eigenvalues --   -0.38668  -0.37965  -0.34656
  Beta virt. eigenvalues --   -0.23252  -0.10660  -0.09426  -0.08976  -0.08475
  Beta virt. eigenvalues --   -0.08060  -0.06018  -0.05781  -0.04828  -0.02841
  Beta virt. eigenvalues --   -0.02195  -0.01911  -0.01753  -0.01104  -0.00134

 Mulliken charges and spin densities:
               1          2
     1  C   -0.063200   0.002479
     2  C   -0.154605   0.000130
     3  S    0.167809   0.019746
     4  C   -0.144301   0.001579
     5  C   -0.224025  -0.047568
     6  C   -0.121870   0.146855
     7  C   -0.088252  -0.000726
     8  C   -0.067866  -0.001492
     9  H    0.104742   0.000562
    10  C   -0.021192   0.081159
    11  C   -0.068668  -0.056780
    12  C   -0.125817   0.112646
    13  C    0.017932   0.001788
    14  H    0.170984  -0.003472
    15  H    0.129342   0.002579
    16  H    0.174437  -0.005257
    17  C   -0.086348   0.004250
    18  H    0.115213  -0.000186
    19  H    0.109489   0.002241
    20  H    0.126325   0.000022
    21  H    0.112724   0.000035
    22  H    0.125871  -0.000203
    23  S    0.157522   0.002302
    24  N    0.090560   0.330403
    25  C   -0.160114   0.009084
    26  C   -0.030284   0.062369
    27  C   -0.058572   0.071077
    28  C   -0.188277  -0.027217
    29  C   -0.152787  -0.028828
    30  C    0.136310   0.087044
    31  H    0.160235  -0.002755
    32  H    0.170887  -0.003403
    33  H    0.158047   0.001476
    34  H    0.144591   0.001419
    35  C   -0.153762   0.010584
    36  C   -0.044655   0.070285
    37  C   -0.043441   0.062408
    38  C   -0.147851  -0.026207
    39  C   -0.185166  -0.028782
    40  C    0.132194   0.087009
    41  H    0.160417  -0.003373
    42  H    0.171615  -0.002916
    43  H    0.145796   0.001352
    44  H    0.158298   0.001488
    45  O   -0.191910   0.033338
    46  H    0.286878  -0.000803
    47  O   -0.192139   0.033054
    48  H    0.286885  -0.000796
 Sum of Mulliken charges =   1.00000   1.00000

 Dipole moment (field-independent basis, Debye):
    X=             -7.1675    Y=             -1.4275    Z=              3.0316  Tot=              7.9121
 Quadrupole moment (field-independent basis, Debye-Ang):
   XX=            -89.2913   YY=           -126.6677   ZZ=           -167.7987
   XY=             -6.5370   XZ=             -7.3092   YZ=              4.6590

 Normal termination of Gaussian 16 at Mon Jan 18 21:36:42 2021.
