 Gaussian 16, Revision A.03,
 Gaussian 16:  EM64L-G16RevA.03 25-Dec-2016

 ----------------------------------------------------------------------
 #P LC-wHPBE/TZVP iop(3/107=0183600000, 3/108=0183600000) scf=(conver=6
 ,fermi,ndamp=35,noincfock,novaracc,vshift=500,xqc)
 ----------------------------------------------------------------------

 ----------------
 H19 C24 S2 N1 O2
 ----------------
 Symbolic Z-matrix:
 Charge =  1 Multiplicity = 2

                         Standard orientation:
 ---------------------------------------------------------------------
 Center     Atomic      Atomic             Coordinates (Angstroms)
 Number     Number       Type             X           Y           Z
 ---------------------------------------------------------------------
      1          6           0        6.544630   -1.193879   -0.127010
      2          6           0        5.283469   -0.647909   -0.131523
      3         16           0        3.665919   -1.107322   -1.042984
      4          6           0        4.996815    0.486583    0.537830
      5          6           0        1.475687    0.036886   -0.221747
      6          6           0        1.772288   -1.094442   -0.892846
      7          6           0        7.517398   -0.549399    0.618903
      8          6           0        5.951198    1.159916    1.262339
      9          1           0        2.843406    1.345523    1.332578
     10          6           0        0.186077    0.430997    0.028463
     11          6           0        0.773630   -1.912541   -1.366813
     12          6           0       -0.536910   -1.552052   -1.124661
     13          6           0       -0.845585   -0.387156   -0.425435
     14          1           0       -0.045427    1.339810    0.567415
     15          1           0        0.986976   -2.816418   -1.923251
     16          1           0       -1.342687   -2.175375   -1.484620
     17          6           0        7.223748    0.615229    1.306247
     18          1           0        6.782458   -2.097666   -0.673346
     19          1           0        3.815781   -2.439410   -0.928305
     20          1           0        8.517553   -0.958288    0.663525
     21          1           0        5.730059    2.077989    1.791552
     22          1           0        7.997253    1.105431    1.881471
     23         16           0        3.166075    0.851646    0.124057
     24          7           0       -2.182887   -0.044483   -0.184905
     25          6           0       -3.146505   -1.044921    0.067172
     26          6           0       -4.392012   -0.989098   -0.539344
     27          6           0       -2.878694   -2.090316    0.930362
     28          6           0       -5.345494   -1.946131   -0.285899
     29          6           0       -3.822608   -3.066997    1.170354
     30          6           0       -5.062274   -2.995295    0.567641
     31          1           0       -4.612943   -0.174890   -1.215121
     32          1           0       -1.913696   -2.145516    1.414069
     33          1           0       -6.317156   -1.901598   -0.755555
     34          1           0       -3.591387   -3.881585    1.845380
     35          6           0       -2.575405    1.310294   -0.123192
     36          6           0       -3.391681    1.763268    0.894977
     37          6           0       -2.164040    2.211964   -1.093710
     38          6           0       -3.796835    3.081396    0.942072
     39          6           0       -2.544098    3.531176   -1.038879
     40          6           0       -3.368807    3.972023   -0.020733
     41          1           0       -3.723839    1.071840    1.656403
     42          1           0       -1.529535    1.868488   -1.898614
     43          1           0       -4.442764    3.415230    1.744528
     44          1           0       -2.220724    4.234697   -1.791974
     45          8           0       -3.726245    5.281320   -0.019257
     46          1           0       -4.294203    5.466041    0.728132
     47          8           0       -6.032969   -3.920806    0.776143
     48          1           0       -5.721078   -4.593785    1.380389
 ---------------------------------------------------------------------

 SCF Done:  E(ULC-wHPBE) =  -1926.19884995     A.U. after   33 cycles
 SCF Done:  E(ULC-wHPBE) =  -1926.20887660     a.u. after   45 cycles

 The electronic state is 2-A.
 Alpha  occ. eigenvalues --  -88.33865 -88.33580 -19.00745 -19.00674 -14.31150
 Alpha  occ. eigenvalues --  -10.18220 -10.18140 -10.16857 -10.16516 -10.16461
 Alpha  occ. eigenvalues --  -10.13046 -10.12966 -10.12740 -10.12661 -10.12390
 Alpha  occ. eigenvalues --  -10.12235 -10.11997 -10.11927 -10.11796 -10.11611
 Alpha  occ. eigenvalues --  -10.11351 -10.11308 -10.11259 -10.08321 -10.08263
 Alpha  occ. eigenvalues --  -10.07485 -10.07475 -10.06660 -10.06612  -7.92324
 Alpha  occ. eigenvalues --   -7.92059  -5.94420  -5.94217  -5.94165  -5.93962
 Alpha  occ. eigenvalues --   -5.93517  -5.93221  -1.20899  -1.20829  -1.16461
 Alpha  occ. eigenvalues --   -1.03768  -1.03449  -1.01831  -0.99558  -0.96090
 Alpha  occ. eigenvalues --   -0.93687  -0.93039  -0.92317  -0.92039  -0.91090
 Alpha  occ. eigenvalues --   -0.89038  -0.88141  -0.85643  -0.84544  -0.81914
 Alpha  occ. eigenvalues --   -0.81289  -0.80023  -0.78953  -0.77575  -0.75220
 Alpha  occ. eigenvalues --   -0.74053  -0.73245  -0.73055  -0.72184  -0.71543
 Alpha  occ. eigenvalues --   -0.70563  -0.68162  -0.66447  -0.66251  -0.65416
 Alpha  occ. eigenvalues --   -0.63713  -0.62653  -0.62526  -0.62033  -0.60937
 Alpha  occ. eigenvalues --   -0.60850  -0.60705  -0.60247  -0.59860  -0.59731
 Alpha  occ. eigenvalues --   -0.58851  -0.58655  -0.58236  -0.57407  -0.57222
 Alpha  occ. eigenvalues --   -0.56446  -0.55515  -0.55102  -0.54639  -0.54026
 Alpha  occ. eigenvalues --   -0.53884  -0.52808  -0.52455  -0.52127  -0.51955
 Alpha  occ. eigenvalues --   -0.50519  -0.49112  -0.48956  -0.47288  -0.46079
 Alpha  occ. eigenvalues --   -0.45353  -0.44847  -0.43508  -0.42644  -0.42110
 Alpha  occ. eigenvalues --   -0.39474  -0.39036  -0.37830  -0.35199
 Alpha virt. eigenvalues --   -0.10579  -0.09691  -0.09182  -0.08482  -0.08121
 Alpha virt. eigenvalues --   -0.05607  -0.05455  -0.05142  -0.02533  -0.01768
 Alpha virt. eigenvalues --   -0.01504  -0.01324  -0.00743   0.00252   0.00572

  Beta  occ. eigenvalues --  -88.33853 -88.33580 -19.00652 -19.00580 -14.30372
  Beta  occ. eigenvalues --  -10.18097 -10.18017 -10.16894 -10.16532 -10.16477
  Beta  occ. eigenvalues --  -10.12933 -10.12854 -10.12640 -10.12560 -10.12264
  Beta  occ. eigenvalues --  -10.12071 -10.12025 -10.11951 -10.11682 -10.11591
  Beta  occ. eigenvalues --  -10.11379 -10.11357 -10.11289 -10.08319 -10.08261
  Beta  occ. eigenvalues --  -10.07487 -10.07472 -10.06657 -10.06612  -7.92313
  Beta  occ. eigenvalues --   -7.92059  -5.94415  -5.94209  -5.94164  -5.93963
  Beta  occ. eigenvalues --   -5.93486  -5.93220  -1.20729  -1.20657  -1.15475
  Beta  occ. eigenvalues --   -1.03564  -1.03253  -1.01593  -0.99470  -0.95971
  Beta  occ. eigenvalues --   -0.93490  -0.92909  -0.92192  -0.91903  -0.90944
  Beta  occ. eigenvalues --   -0.88929  -0.87789  -0.85607  -0.84440  -0.81742
  Beta  occ. eigenvalues --   -0.81077  -0.79806  -0.78771  -0.77416  -0.75051
  Beta  occ. eigenvalues --   -0.74035  -0.73124  -0.72962  -0.72000  -0.71428
  Beta  occ. eigenvalues --   -0.70491  -0.67706  -0.66352  -0.66159  -0.65307
  Beta  occ. eigenvalues --   -0.63512  -0.62546  -0.62390  -0.61869  -0.60845
  Beta  occ. eigenvalues --   -0.60742  -0.60603  -0.59923  -0.59516  -0.59491
  Beta  occ. eigenvalues --   -0.58742  -0.58402  -0.58106  -0.57364  -0.56788
  Beta  occ. eigenvalues --   -0.56091  -0.55408  -0.55024  -0.54273  -0.53678
  Beta  occ. eigenvalues --   -0.53374  -0.52735  -0.52307  -0.52027  -0.51866
  Beta  occ. eigenvalues --   -0.49843  -0.49089  -0.48519  -0.46529  -0.45755
  Beta  occ. eigenvalues --   -0.45082  -0.44426  -0.42423  -0.41945  -0.41331
  Beta  occ. eigenvalues --   -0.39174  -0.38445  -0.35107
  Beta virt. eigenvalues --   -0.23068  -0.10247  -0.09014  -0.08566  -0.08016
  Beta virt. eigenvalues --   -0.07596  -0.05533  -0.05297  -0.04321  -0.02334
  Beta virt. eigenvalues --   -0.01699  -0.01449  -0.01296  -0.00674   0.00319

 Mulliken charges and spin densities:
               1          2
     1  C   -0.064281   0.002369
     2  C   -0.156558   0.000443
     3  S    0.170710   0.017507
     4  C   -0.146377   0.001068
     5  C   -0.227442  -0.053269
     6  C   -0.124246   0.150931
     7  C   -0.089561  -0.000830
     8  C   -0.068971  -0.001433
     9  H    0.104271   0.000419
    10  C   -0.020402   0.087152
    11  C   -0.069905  -0.061413
    12  C   -0.126332   0.116264
    13  C    0.016733  -0.002954
    14  H    0.173282  -0.003666
    15  H    0.130761   0.002808
    16  H    0.176476  -0.005398
    17  C   -0.087720   0.003802
    18  H    0.116171  -0.000169
    19  H    0.109020   0.001956
    20  H    0.127279   0.000037
    21  H    0.113667   0.000044
    22  H    0.126805  -0.000193
    23  S    0.161157   0.001494
    24  N    0.090458   0.341706
    25  C   -0.161828   0.005038
    26  C   -0.029801   0.065430
    27  C   -0.058146   0.074136
    28  C   -0.190557  -0.030745
    29  C   -0.155278  -0.032307
    30  C    0.136380   0.089503
    31  H    0.162145  -0.002867
    32  H    0.172885  -0.003516
    33  H    0.159410   0.001627
    34  H    0.145972   0.001565
    35  C   -0.155475   0.006599
    36  C   -0.044575   0.073684
    37  C   -0.042561   0.065674
    38  C   -0.150270  -0.029834
    39  C   -0.187393  -0.032436
    40  C    0.132286   0.089806
    41  H    0.162350  -0.003508
    42  H    0.173691  -0.003047
    43  H    0.147209   0.001503
    44  H    0.159702   0.001640
    45  O   -0.192255   0.032665
    46  H    0.286838  -0.000791
    47  O   -0.192549   0.032287
    48  H    0.286828  -0.000781
 Sum of Mulliken charges =   1.00000   1.00000

 Dipole moment (field-independent basis, Debye):
    X=             -7.2504    Y=             -1.4320    Z=              3.0315  Tot=              7.9881
 Quadrupole moment (field-independent basis, Debye-Ang):
   XX=            -89.7538   YY=           -126.7455   ZZ=           -167.7157
   XY=             -6.5976   XZ=             -7.3088   YZ=              4.6872

 Normal termination of Gaussian 16 at Mon Jan 18 17:02:21 2021.
