 Gaussian 16, Revision A.03,
 Gaussian 16:  EM64L-G16RevA.03 25-Dec-2016

 ----------------------------------------------------------------------
 #P LC-wHPBE/TZVP iop(3/107=0177100000, 3/108=0177100000) scf=(conver=6
 ,fermi,ndamp=35,noincfock,novaracc,vshift=500,xqc)
 ----------------------------------------------------------------------

 ----------------
 H19 C24 S2 N1 O2
 ----------------
 Symbolic Z-matrix:
 Charge =  1 Multiplicity = 2

                         Standard orientation:
 ---------------------------------------------------------------------
 Center     Atomic      Atomic             Coordinates (Angstroms)
 Number     Number       Type             X           Y           Z
 ---------------------------------------------------------------------
      1          6           0        6.544630   -1.193879   -0.127010
      2          6           0        5.283469   -0.647909   -0.131523
      3         16           0        3.665919   -1.107322   -1.042984
      4          6           0        4.996815    0.486583    0.537830
      5          6           0        1.475687    0.036886   -0.221747
      6          6           0        1.772288   -1.094442   -0.892846
      7          6           0        7.517398   -0.549399    0.618903
      8          6           0        5.951198    1.159916    1.262339
      9          1           0        2.843406    1.345523    1.332578
     10          6           0        0.186077    0.430997    0.028463
     11          6           0        0.773630   -1.912541   -1.366813
     12          6           0       -0.536910   -1.552052   -1.124661
     13          6           0       -0.845585   -0.387156   -0.425435
     14          1           0       -0.045427    1.339810    0.567415
     15          1           0        0.986976   -2.816418   -1.923251
     16          1           0       -1.342687   -2.175375   -1.484620
     17          6           0        7.223748    0.615229    1.306247
     18          1           0        6.782458   -2.097666   -0.673346
     19          1           0        3.815781   -2.439410   -0.928305
     20          1           0        8.517553   -0.958288    0.663525
     21          1           0        5.730059    2.077989    1.791552
     22          1           0        7.997253    1.105431    1.881471
     23         16           0        3.166075    0.851646    0.124057
     24          7           0       -2.182887   -0.044483   -0.184905
     25          6           0       -3.146505   -1.044921    0.067172
     26          6           0       -4.392012   -0.989098   -0.539344
     27          6           0       -2.878694   -2.090316    0.930362
     28          6           0       -5.345494   -1.946131   -0.285899
     29          6           0       -3.822608   -3.066997    1.170354
     30          6           0       -5.062274   -2.995295    0.567641
     31          1           0       -4.612943   -0.174890   -1.215121
     32          1           0       -1.913696   -2.145516    1.414069
     33          1           0       -6.317156   -1.901598   -0.755555
     34          1           0       -3.591387   -3.881585    1.845380
     35          6           0       -2.575405    1.310294   -0.123192
     36          6           0       -3.391681    1.763268    0.894977
     37          6           0       -2.164040    2.211964   -1.093710
     38          6           0       -3.796835    3.081396    0.942072
     39          6           0       -2.544098    3.531176   -1.038879
     40          6           0       -3.368807    3.972023   -0.020733
     41          1           0       -3.723839    1.071840    1.656403
     42          1           0       -1.529535    1.868488   -1.898614
     43          1           0       -4.442764    3.415230    1.744528
     44          1           0       -2.220724    4.234697   -1.791974
     45          8           0       -3.726245    5.281320   -0.019257
     46          1           0       -4.294203    5.466041    0.728132
     47          8           0       -6.032969   -3.920806    0.776143
     48          1           0       -5.721078   -4.593785    1.380389
 ---------------------------------------------------------------------

 SCF Done:  E(ULC-wHPBE) =  -1926.18945357     A.U. after   33 cycles
 SCF Done:  E(ULC-wHPBE) =  -1926.19930778     a.u. after    7 cycles

 The electronic state is 2-A.
 Alpha  occ. eigenvalues --  -88.33506 -88.33216 -19.00401 -19.00327 -14.30710
 Alpha  occ. eigenvalues --  -10.17832 -10.17750 -10.16468 -10.16128 -10.16071
 Alpha  occ. eigenvalues --  -10.12654 -10.12570 -10.12348 -10.12267 -10.11995
 Alpha  occ. eigenvalues --  -10.11849 -10.11623 -10.11550 -10.11425 -10.11238
 Alpha  occ. eigenvalues --  -10.10978 -10.10943 -10.10884 -10.07970 -10.07911
 Alpha  occ. eigenvalues --  -10.07133 -10.07123 -10.06310 -10.06262  -7.91963
 Alpha  occ. eigenvalues --   -7.91693  -5.94064  -5.93862  -5.93804  -5.93602
 Alpha  occ. eigenvalues --   -5.93165  -5.92863  -1.20531  -1.20458  -1.16025
 Alpha  occ. eigenvalues --   -1.03366  -1.03041  -1.01430  -0.99175  -0.95708
 Alpha  occ. eigenvalues --   -0.93296  -0.92650  -0.91927  -0.91652  -0.90712
 Alpha  occ. eigenvalues --   -0.88669  -0.87769  -0.85287  -0.84184  -0.81556
 Alpha  occ. eigenvalues --   -0.80927  -0.79662  -0.78599  -0.77223  -0.74876
 Alpha  occ. eigenvalues --   -0.73722  -0.72903  -0.72722  -0.71851  -0.71216
 Alpha  occ. eigenvalues --   -0.70236  -0.67821  -0.66125  -0.65937  -0.65096
 Alpha  occ. eigenvalues --   -0.63396  -0.62336  -0.62207  -0.61719  -0.60629
 Alpha  occ. eigenvalues --   -0.60535  -0.60393  -0.59925  -0.59535  -0.59424
 Alpha  occ. eigenvalues --   -0.58554  -0.58349  -0.57940  -0.57118  -0.56918
 Alpha  occ. eigenvalues --   -0.56146  -0.55229  -0.54829  -0.54344  -0.53727
 Alpha  occ. eigenvalues --   -0.53585  -0.52534  -0.52187  -0.51849  -0.51676
 Alpha  occ. eigenvalues --   -0.50236  -0.48868  -0.48691  -0.47026  -0.45835
 Alpha  occ. eigenvalues --   -0.45114  -0.44608  -0.43282  -0.42417  -0.41888
 Alpha  occ. eigenvalues --   -0.39268  -0.38832  -0.37624  -0.35025
 Alpha virt. eigenvalues --   -0.10736  -0.09845  -0.09335  -0.08652  -0.08292
 Alpha virt. eigenvalues --   -0.05796  -0.05636  -0.05322  -0.02728  -0.01962
 Alpha virt. eigenvalues --   -0.01685  -0.01504  -0.00913   0.00075   0.00403

  Beta  occ. eigenvalues --  -88.33494 -88.33215 -19.00307 -19.00232 -14.29940
  Beta  occ. eigenvalues --  -10.17711 -10.17628 -10.16503 -10.16142 -10.16085
  Beta  occ. eigenvalues --  -10.12542 -10.12460 -10.12250 -10.12168 -10.11873
  Beta  occ. eigenvalues --  -10.11686 -10.11649 -10.11573 -10.11307 -10.11221
  Beta  occ. eigenvalues --  -10.11005 -10.10990 -10.10913 -10.07967 -10.07909
  Beta  occ. eigenvalues --  -10.07134 -10.07120 -10.06306 -10.06261  -7.91951
  Beta  occ. eigenvalues --   -7.91693  -5.94058  -5.93853  -5.93803  -5.93603
  Beta  occ. eigenvalues --   -5.93133  -5.92862  -1.20360  -1.20286  -1.15050
  Beta  occ. eigenvalues --   -1.03163  -1.02846  -1.01195  -0.99088  -0.95590
  Beta  occ. eigenvalues --   -0.93100  -0.92520  -0.91802  -0.91517  -0.90566
  Beta  occ. eigenvalues --   -0.88560  -0.87423  -0.85251  -0.84081  -0.81385
  Beta  occ. eigenvalues --   -0.80717  -0.79447  -0.78419  -0.77064  -0.74707
  Beta  occ. eigenvalues --   -0.73703  -0.72783  -0.72629  -0.71668  -0.71102
  Beta  occ. eigenvalues --   -0.70164  -0.67375  -0.66031  -0.65843  -0.64988
  Beta  occ. eigenvalues --   -0.63198  -0.62230  -0.62073  -0.61558  -0.60537
  Beta  occ. eigenvalues --   -0.60431  -0.60294  -0.59604  -0.59207  -0.59170
  Beta  occ. eigenvalues --   -0.58450  -0.58097  -0.57810  -0.57075  -0.56493
  Beta  occ. eigenvalues --   -0.55798  -0.55124  -0.54752  -0.53979  -0.53390
  Beta  occ. eigenvalues --   -0.53086  -0.52466  -0.52041  -0.51749  -0.51588
  Beta  occ. eigenvalues --   -0.49581  -0.48845  -0.48271  -0.46289  -0.45514
  Beta  occ. eigenvalues --   -0.44843  -0.44195  -0.42221  -0.41730  -0.41136
  Beta  occ. eigenvalues --   -0.38973  -0.38254  -0.34927
  Beta virt. eigenvalues --   -0.23141  -0.10409  -0.09176  -0.08728  -0.08197
  Beta virt. eigenvalues --   -0.07779  -0.05722  -0.05485  -0.04521  -0.02532
  Beta virt. eigenvalues --   -0.01892  -0.01631  -0.01476  -0.00843   0.00141

 Mulliken charges and spin densities:
               1          2
     1  C   -0.063863   0.002409
     2  C   -0.155727   0.000308
     3  S    0.169475   0.018374
     4  C   -0.145500   0.001270
     5  C   -0.226015  -0.050915
     6  C   -0.123202   0.149253
     7  C   -0.088996  -0.000792
     8  C   -0.068541  -0.001457
     9  H    0.104462   0.000476
    10  C   -0.020753   0.084699
    11  C   -0.069453  -0.059492
    12  C   -0.126078   0.114765
    13  C    0.017281  -0.000982
    14  H    0.172323  -0.003586
    15  H    0.130149   0.002714
    16  H    0.175622  -0.005339
    17  C   -0.087131   0.003971
    18  H    0.115749  -0.000175
    19  H    0.109209   0.002073
    20  H    0.126863   0.000031
    21  H    0.113251   0.000041
    22  H    0.126397  -0.000197
    23  S    0.159624   0.001800
    24  N    0.090568   0.337163
    25  C   -0.161082   0.006717
    26  C   -0.029949   0.064169
    27  C   -0.058276   0.072876
    28  C   -0.189655  -0.029287
    29  C   -0.154282  -0.030867
    30  C    0.136391   0.088466
    31  H    0.161335  -0.002821
    32  H    0.172037  -0.003469
    33  H    0.158818   0.001565
    34  H    0.145379   0.001505
    35  C   -0.154730   0.008253
    36  C   -0.044563   0.072282
    37  C   -0.042874   0.064333
    38  C   -0.149302  -0.028333
    39  C   -0.186509  -0.030925
    40  C    0.132286   0.088631
    41  H    0.161531  -0.003452
    42  H    0.172811  -0.002993
    43  H    0.146603   0.001441
    44  H    0.159094   0.001577
    45  O   -0.192099   0.032921
    46  H    0.286847  -0.000795
    47  O   -0.192366   0.032581
    48  H    0.286844  -0.000786
 Sum of Mulliken charges =   1.00000   1.00000

 Dipole moment (field-independent basis, Debye):
    X=             -7.2202    Y=             -1.4302    Z=              3.0314  Tot=              7.9603
 Quadrupole moment (field-independent basis, Debye-Ang):
   XX=            -89.5737   YY=           -126.7142   ZZ=           -167.7493
   XY=             -6.5724   XZ=             -7.3083   YZ=              4.6759

 Normal termination of Gaussian 16 at Tue Jan 19 08:43:49 2021.
