 Gaussian 16, Revision A.03,
 Gaussian 16:  EM64L-G16RevA.03 25-Dec-2016

 ----------------------------------------------------------------------
 #P LC-wHPBE/TZVP iop(3/107=0167500000, 3/108=0167500000) scf=(conver=6
 ,fermi,ndamp=35,noincfock,novaracc,vshift=500,xqc)
 ----------------------------------------------------------------------

 ----------------
 H19 C24 S2 N1 O2
 ----------------
 Symbolic Z-matrix:
 Charge =  0 Multiplicity = 1

                         Standard orientation:
 ---------------------------------------------------------------------
 Center     Atomic      Atomic             Coordinates (Angstroms)
 Number     Number       Type             X           Y           Z
 ---------------------------------------------------------------------
      1          6           0        6.544630   -1.193879   -0.127010
      2          6           0        5.283469   -0.647909   -0.131523
      3         16           0        3.665919   -1.107322   -1.042984
      4          6           0        4.996815    0.486583    0.537830
      5          6           0        1.475687    0.036886   -0.221747
      6          6           0        1.772288   -1.094442   -0.892846
      7          6           0        7.517398   -0.549399    0.618903
      8          6           0        5.951198    1.159916    1.262339
      9          1           0        2.843406    1.345523    1.332578
     10          6           0        0.186077    0.430997    0.028463
     11          6           0        0.773630   -1.912541   -1.366813
     12          6           0       -0.536910   -1.552052   -1.124661
     13          6           0       -0.845585   -0.387156   -0.425435
     14          1           0       -0.045427    1.339810    0.567415
     15          1           0        0.986976   -2.816418   -1.923251
     16          1           0       -1.342687   -2.175375   -1.484620
     17          6           0        7.223748    0.615229    1.306247
     18          1           0        6.782458   -2.097666   -0.673346
     19          1           0        3.815781   -2.439410   -0.928305
     20          1           0        8.517553   -0.958288    0.663525
     21          1           0        5.730059    2.077989    1.791552
     22          1           0        7.997253    1.105431    1.881471
     23         16           0        3.166075    0.851646    0.124057
     24          7           0       -2.182887   -0.044483   -0.184905
     25          6           0       -3.146505   -1.044921    0.067172
     26          6           0       -4.392012   -0.989098   -0.539344
     27          6           0       -2.878694   -2.090316    0.930362
     28          6           0       -5.345494   -1.946131   -0.285899
     29          6           0       -3.822608   -3.066997    1.170354
     30          6           0       -5.062274   -2.995295    0.567641
     31          1           0       -4.612943   -0.174890   -1.215121
     32          1           0       -1.913696   -2.145516    1.414069
     33          1           0       -6.317156   -1.901598   -0.755555
     34          1           0       -3.591387   -3.881585    1.845380
     35          6           0       -2.575405    1.310294   -0.123192
     36          6           0       -3.391681    1.763268    0.894977
     37          6           0       -2.164040    2.211964   -1.093710
     38          6           0       -3.796835    3.081396    0.942072
     39          6           0       -2.544098    3.531176   -1.038879
     40          6           0       -3.368807    3.972023   -0.020733
     41          1           0       -3.723839    1.071840    1.656403
     42          1           0       -1.529535    1.868488   -1.898614
     43          1           0       -4.442764    3.415230    1.744528
     44          1           0       -2.220724    4.234697   -1.791974
     45          8           0       -3.726245    5.281320   -0.019257
     46          1           0       -4.294203    5.466041    0.728132
     47          8           0       -6.032969   -3.920806    0.776143
     48          1           0       -5.721078   -4.593785    1.380389
 ---------------------------------------------------------------------

 SCF Done:  E(RLC-wHPBE) =  -1926.41615017     A.U. after   18 cycles

 The electronic state is 1-A.
 Alpha  occ. eigenvalues --  -88.22572 -88.22490 -18.87735 -18.87629 -14.10793
 Alpha  occ. eigenvalues --  -10.03860 -10.03758 -10.01888 -10.01344 -10.01278
 Alpha  occ. eigenvalues --   -9.98425  -9.98392  -9.98388  -9.98376  -9.98369
 Alpha  occ. eigenvalues --   -9.98365  -9.98343  -9.98267  -9.98233  -9.98139
 Alpha  occ. eigenvalues --   -9.98064  -9.97982  -9.97918  -9.97860  -9.97848
 Alpha  occ. eigenvalues --   -9.97819  -9.97743  -9.97651  -9.97403  -7.81037
 Alpha  occ. eigenvalues --   -7.80967  -5.83141  -5.83074  -5.82971  -5.82897
 Alpha  occ. eigenvalues --   -5.82222  -5.82149  -1.07973  -1.07870  -0.98888
 Alpha  occ. eigenvalues --   -0.90639  -0.88885  -0.88844  -0.87300  -0.84344
 Alpha  occ. eigenvalues --   -0.79685  -0.79097  -0.78858  -0.78229  -0.78102
 Alpha  occ. eigenvalues --   -0.77564  -0.75732  -0.74631  -0.72524  -0.67971
 Alpha  occ. eigenvalues --   -0.67261  -0.65815  -0.65439  -0.64364  -0.63834
 Alpha  occ. eigenvalues --   -0.62315  -0.60753  -0.59670  -0.59547  -0.57978
 Alpha  occ. eigenvalues --   -0.57601  -0.56060  -0.54340  -0.52807  -0.51933
 Alpha  occ. eigenvalues --   -0.50713  -0.50242  -0.49074  -0.48973  -0.48701
 Alpha  occ. eigenvalues --   -0.48380  -0.47800  -0.47297  -0.47155  -0.46882
 Alpha  occ. eigenvalues --   -0.46606  -0.46373  -0.46088  -0.44842  -0.44735
 Alpha  occ. eigenvalues --   -0.44072  -0.43505  -0.42936  -0.42256  -0.41452
 Alpha  occ. eigenvalues --   -0.40850  -0.40447  -0.40009  -0.39548  -0.39213
 Alpha  occ. eigenvalues --   -0.38835  -0.38608  -0.37441  -0.34735  -0.32889
 Alpha  occ. eigenvalues --   -0.32398  -0.31802  -0.31643  -0.30942  -0.29261
 Alpha  occ. eigenvalues --   -0.29041  -0.28413  -0.24395  -0.22914
 Alpha virt. eigenvalues --    0.01643   0.02570   0.02844   0.03629   0.03820
 Alpha virt. eigenvalues --    0.03909   0.04019   0.05825   0.07287   0.07885
 Alpha virt. eigenvalues --    0.08003   0.08466   0.09430   0.10510   0.11101

 Mulliken charges:
               1
     1  C   -0.077440
     2  C   -0.149181
     3  S    0.136422
     4  C   -0.144007
     5  C   -0.208196
     6  C   -0.141279
     7  C   -0.090637
     8  C   -0.080375
     9  H    0.089892
    10  C   -0.059704
    11  C   -0.083146
    12  C   -0.146197
    13  C    0.031732
    14  H    0.144859
    15  H    0.089789
    16  H    0.145059
    17  C   -0.089274
    18  H    0.095602
    19  H    0.087366
    20  H    0.101947
    21  H    0.095914
    22  H    0.101983
    23  S    0.135846
    24  N    0.005238
    25  C   -0.143540
    26  C   -0.049051
    27  C   -0.073252
    28  C   -0.203264
    29  C   -0.174526
    30  C    0.124669
    31  H    0.129638
    32  H    0.140118
    33  H    0.114145
    34  H    0.103646
    35  C   -0.138939
    36  C   -0.064065
    37  C   -0.059058
    38  C   -0.169731
    39  C   -0.200012
    40  C    0.120499
    41  H    0.131497
    42  H    0.139950
    43  H    0.104419
    44  H    0.115262
    45  O   -0.237670
    46  H    0.267539
    47  O   -0.238081
    48  H    0.267595
 Sum of Mulliken charges =  -0.00000

 Dipole moment (field-independent basis, Debye):
    X=             -0.9699    Y=             -1.3787    Z=              3.0564  Tot=              3.4904
 Quadrupole moment (field-independent basis, Debye-Ang):
   XX=           -174.8802   YY=           -165.6971   ZZ=           -177.8184
   XY=             -6.8038   XZ=             -5.3856   YZ=              5.1049

 Normal termination of Gaussian 16 at Mon Jan 18 19:21:04 2021.
