 Gaussian 16, Revision A.03,
 Gaussian 16:  EM64L-G16RevA.03 25-Dec-2016

 ----------------------------------------------------------------------
 #P LC-wHPBE/TZVP iop(3/107=0177100000, 3/108=0177100000) scf=(conver=6
 ,fermi,ndamp=35,noincfock,novaracc,vshift=500,xqc)
 ----------------------------------------------------------------------

 ----------------
 H19 C24 S2 N1 O2
 ----------------
 Symbolic Z-matrix:
 Charge =  0 Multiplicity = 1

                         Standard orientation:
 ---------------------------------------------------------------------
 Center     Atomic      Atomic             Coordinates (Angstroms)
 Number     Number       Type             X           Y           Z
 ---------------------------------------------------------------------
      1          6           0        6.544630   -1.193879   -0.127010
      2          6           0        5.283469   -0.647909   -0.131523
      3         16           0        3.665919   -1.107322   -1.042984
      4          6           0        4.996815    0.486583    0.537830
      5          6           0        1.475687    0.036886   -0.221747
      6          6           0        1.772288   -1.094442   -0.892846
      7          6           0        7.517398   -0.549399    0.618903
      8          6           0        5.951198    1.159916    1.262339
      9          1           0        2.843406    1.345523    1.332578
     10          6           0        0.186077    0.430997    0.028463
     11          6           0        0.773630   -1.912541   -1.366813
     12          6           0       -0.536910   -1.552052   -1.124661
     13          6           0       -0.845585   -0.387156   -0.425435
     14          1           0       -0.045427    1.339810    0.567415
     15          1           0        0.986976   -2.816418   -1.923251
     16          1           0       -1.342687   -2.175375   -1.484620
     17          6           0        7.223748    0.615229    1.306247
     18          1           0        6.782458   -2.097666   -0.673346
     19          1           0        3.815781   -2.439410   -0.928305
     20          1           0        8.517553   -0.958288    0.663525
     21          1           0        5.730059    2.077989    1.791552
     22          1           0        7.997253    1.105431    1.881471
     23         16           0        3.166075    0.851646    0.124057
     24          7           0       -2.182887   -0.044483   -0.184905
     25          6           0       -3.146505   -1.044921    0.067172
     26          6           0       -4.392012   -0.989098   -0.539344
     27          6           0       -2.878694   -2.090316    0.930362
     28          6           0       -5.345494   -1.946131   -0.285899
     29          6           0       -3.822608   -3.066997    1.170354
     30          6           0       -5.062274   -2.995295    0.567641
     31          1           0       -4.612943   -0.174890   -1.215121
     32          1           0       -1.913696   -2.145516    1.414069
     33          1           0       -6.317156   -1.901598   -0.755555
     34          1           0       -3.591387   -3.881585    1.845380
     35          6           0       -2.575405    1.310294   -0.123192
     36          6           0       -3.391681    1.763268    0.894977
     37          6           0       -2.164040    2.211964   -1.093710
     38          6           0       -3.796835    3.081396    0.942072
     39          6           0       -2.544098    3.531176   -1.038879
     40          6           0       -3.368807    3.972023   -0.020733
     41          1           0       -3.723839    1.071840    1.656403
     42          1           0       -1.529535    1.868488   -1.898614
     43          1           0       -4.442764    3.415230    1.744528
     44          1           0       -2.220724    4.234697   -1.791974
     45          8           0       -3.726245    5.281320   -0.019257
     46          1           0       -4.294203    5.466041    0.728132
     47          8           0       -6.032969   -3.920806    0.776143
     48          1           0       -5.721078   -4.593785    1.380389
 ---------------------------------------------------------------------

 SCF Done:  E(RLC-wHPBE) =  -1926.43116982     A.U. after   18 cycles

 The electronic state is 1-A.
 Alpha  occ. eigenvalues --  -88.23127 -88.23045 -18.88246 -18.88139 -14.11297
 Alpha  occ. eigenvalues --  -10.04412 -10.04309 -10.02441 -10.01891 -10.01825
 Alpha  occ. eigenvalues --   -9.98966  -9.98934  -9.98931  -9.98918  -9.98917
 Alpha  occ. eigenvalues --   -9.98907  -9.98884  -9.98808  -9.98778  -9.98684
 Alpha  occ. eigenvalues --   -9.98609  -9.98526  -9.98459  -9.98402  -9.98390
 Alpha  occ. eigenvalues --   -9.98360  -9.98283  -9.98190  -9.97944  -7.81595
 Alpha  occ. eigenvalues --   -7.81524  -5.83691  -5.83623  -5.83519  -5.83444
 Alpha  occ. eigenvalues --   -5.82768  -5.82694  -1.08513  -1.08410  -0.99448
 Alpha  occ. eigenvalues --   -0.91218  -0.89458  -0.89417  -0.87868  -0.84914
 Alpha  occ. eigenvalues --   -0.80246  -0.79650  -0.79411  -0.78781  -0.78654
 Alpha  occ. eigenvalues --   -0.78115  -0.76276  -0.75171  -0.73055  -0.68480
 Alpha  occ. eigenvalues --   -0.67772  -0.66326  -0.65946  -0.64873  -0.64340
 Alpha  occ. eigenvalues --   -0.62814  -0.61242  -0.60150  -0.60029  -0.58468
 Alpha  occ. eigenvalues --   -0.58072  -0.56540  -0.54811  -0.53272  -0.52397
 Alpha  occ. eigenvalues --   -0.51168  -0.50697  -0.49526  -0.49424  -0.49152
 Alpha  occ. eigenvalues --   -0.48834  -0.48252  -0.47741  -0.47599  -0.47327
 Alpha  occ. eigenvalues --   -0.47060  -0.46844  -0.46528  -0.45288  -0.45158
 Alpha  occ. eigenvalues --   -0.44516  -0.43957  -0.43374  -0.42671  -0.41845
 Alpha  occ. eigenvalues --   -0.41267  -0.40884  -0.40448  -0.39934  -0.39611
 Alpha  occ. eigenvalues --   -0.39235  -0.39005  -0.37847  -0.35131  -0.33253
 Alpha  occ. eigenvalues --   -0.32747  -0.32147  -0.31984  -0.31284  -0.29592
 Alpha  occ. eigenvalues --   -0.29369  -0.28728  -0.24677  -0.23186
 Alpha virt. eigenvalues --    0.01903   0.02834   0.03106   0.03901   0.04087
 Alpha virt. eigenvalues --    0.04188   0.04302   0.06106   0.07580   0.08166
 Alpha virt. eigenvalues --    0.08284   0.08760   0.09704   0.10778   0.11368

 Mulliken charges:
               1
     1  C   -0.077984
     2  C   -0.150427
     3  S    0.139022
     4  C   -0.145287
     5  C   -0.209567
     6  C   -0.143342
     7  C   -0.091356
     8  C   -0.080916
     9  H    0.089749
    10  C   -0.059784
    11  C   -0.083671
    12  C   -0.146702
    13  C    0.031670
    14  H    0.146079
    15  H    0.090585
    16  H    0.146199
    17  C   -0.089999
    18  H    0.096300
    19  H    0.087222
    20  H    0.102648
    21  H    0.096614
    22  H    0.102684
    23  S    0.138383
    24  N    0.002439
    25  C   -0.143893
    26  C   -0.049008
    27  C   -0.073210
    28  C   -0.204435
    29  C   -0.175761
    30  C    0.124423
    31  H    0.130696
    32  H    0.141172
    33  H    0.114962
    34  H    0.104444
    35  C   -0.139162
    36  C   -0.064404
    37  C   -0.058731
    38  C   -0.170932
    39  C   -0.201181
    40  C    0.120227
    41  H    0.132527
    42  H    0.141038
    43  H    0.105227
    44  H    0.116068
    45  O   -0.237695
    46  H    0.267556
    47  O   -0.238102
    48  H    0.267612
 Sum of Mulliken charges =  -0.00000

 Dipole moment (field-independent basis, Debye):
    X=             -0.9526    Y=             -1.3856    Z=              3.0603  Tot=              3.4918
 Quadrupole moment (field-independent basis, Debye-Ang):
   XX=           -174.8576   YY=           -165.6971   ZZ=           -177.7534
   XY=             -6.8307   XZ=             -5.3765   YZ=              5.1297

 Normal termination of Gaussian 16 at Tue Jan 19 07:02:33 2021.
