 Gaussian 16, Revision A.03,
 Gaussian 16:  EM64L-G16RevA.03 25-Dec-2016

 ----------------------------------------------------------------------
 #P LC-wHPBE/TZVP iop(3/107=0174500000, 3/108=0174500000) scf=(conver=6
 ,fermi,ndamp=35,noincfock,novaracc,vshift=500,xqc)
 ----------------------------------------------------------------------

 ----------------
 H19 C24 S2 N1 O2
 ----------------
 Symbolic Z-matrix:
 Charge =  1 Multiplicity = 2

                         Standard orientation:
 ---------------------------------------------------------------------
 Center     Atomic      Atomic             Coordinates (Angstroms)
 Number     Number       Type             X           Y           Z
 ---------------------------------------------------------------------
      1          6           0        6.544630   -1.193879   -0.127010
      2          6           0        5.283469   -0.647909   -0.131523
      3         16           0        3.665919   -1.107322   -1.042984
      4          6           0        4.996815    0.486583    0.537830
      5          6           0        1.475687    0.036886   -0.221747
      6          6           0        1.772288   -1.094442   -0.892846
      7          6           0        7.517398   -0.549399    0.618903
      8          6           0        5.951198    1.159916    1.262339
      9          1           0        2.843406    1.345523    1.332578
     10          6           0        0.186077    0.430997    0.028463
     11          6           0        0.773630   -1.912541   -1.366813
     12          6           0       -0.536910   -1.552052   -1.124661
     13          6           0       -0.845585   -0.387156   -0.425435
     14          1           0       -0.045427    1.339810    0.567415
     15          1           0        0.986976   -2.816418   -1.923251
     16          1           0       -1.342687   -2.175375   -1.484620
     17          6           0        7.223748    0.615229    1.306247
     18          1           0        6.782458   -2.097666   -0.673346
     19          1           0        3.815781   -2.439410   -0.928305
     20          1           0        8.517553   -0.958288    0.663525
     21          1           0        5.730059    2.077989    1.791552
     22          1           0        7.997253    1.105431    1.881471
     23         16           0        3.166075    0.851646    0.124057
     24          7           0       -2.182887   -0.044483   -0.184905
     25          6           0       -3.146505   -1.044921    0.067172
     26          6           0       -4.392012   -0.989098   -0.539344
     27          6           0       -2.878694   -2.090316    0.930362
     28          6           0       -5.345494   -1.946131   -0.285899
     29          6           0       -3.822608   -3.066997    1.170354
     30          6           0       -5.062274   -2.995295    0.567641
     31          1           0       -4.612943   -0.174890   -1.215121
     32          1           0       -1.913696   -2.145516    1.414069
     33          1           0       -6.317156   -1.901598   -0.755555
     34          1           0       -3.591387   -3.881585    1.845380
     35          6           0       -2.575405    1.310294   -0.123192
     36          6           0       -3.391681    1.763268    0.894977
     37          6           0       -2.164040    2.211964   -1.093710
     38          6           0       -3.796835    3.081396    0.942072
     39          6           0       -2.544098    3.531176   -1.038879
     40          6           0       -3.368807    3.972023   -0.020733
     41          1           0       -3.723839    1.071840    1.656403
     42          1           0       -1.529535    1.868488   -1.898614
     43          1           0       -4.442764    3.415230    1.744528
     44          1           0       -2.220724    4.234697   -1.791974
     45          8           0       -3.726245    5.281320   -0.019257
     46          1           0       -4.294203    5.466041    0.728132
     47          8           0       -6.032969   -3.920806    0.776143
     48          1           0       -5.721078   -4.593785    1.380389
 ---------------------------------------------------------------------

 SCF Done:  E(ULC-wHPBE) =  -1926.18698960     A.U. after   33 cycles
 SCF Done:  E(ULC-wHPBE) =  -1926.19546921     a.u. after    6 cycles

 The electronic state is 2-A.
 Alpha  occ. eigenvalues --  -88.33365 -88.33072 -19.00262 -19.00186 -14.30530
 Alpha  occ. eigenvalues --  -10.17677 -10.17592 -10.16312 -10.15971 -10.15912
 Alpha  occ. eigenvalues --  -10.12495 -10.12410 -10.12190 -10.12108 -10.11837
 Alpha  occ. eigenvalues --  -10.11694 -10.11472 -10.11398 -10.11277 -10.11089
 Alpha  occ. eigenvalues --  -10.10828 -10.10799 -10.10733 -10.07832 -10.07772
 Alpha  occ. eigenvalues --  -10.06993 -10.06983 -10.06171 -10.06123  -7.91821
 Alpha  occ. eigenvalues --   -7.91548  -5.93924  -5.93723  -5.93662  -5.93461
 Alpha  occ. eigenvalues --   -5.93027  -5.92723  -1.20383  -1.20308  -1.15848
 Alpha  occ. eigenvalues --   -1.03206  -1.02877  -1.01270  -0.99023  -0.95556
 Alpha  occ. eigenvalues --   -0.93138  -0.92494  -0.91769  -0.91497  -0.90560
 Alpha  occ. eigenvalues --   -0.88522  -0.87620  -0.85145  -0.84040  -0.81411
 Alpha  occ. eigenvalues --   -0.80781  -0.79516  -0.78456  -0.77081  -0.74737
 Alpha  occ. eigenvalues --   -0.73590  -0.72763  -0.72587  -0.71716  -0.71084
 Alpha  occ. eigenvalues --   -0.70105  -0.67683  -0.65994  -0.65810  -0.64967
 Alpha  occ. eigenvalues --   -0.63269  -0.62207  -0.62077  -0.61593  -0.60504
 Alpha  occ. eigenvalues --   -0.60408  -0.60266  -0.59795  -0.59402  -0.59300
 Alpha  occ. eigenvalues --   -0.58435  -0.58224  -0.57821  -0.57002  -0.56796
 Alpha  occ. eigenvalues --   -0.56025  -0.55112  -0.54719  -0.54223  -0.53606
 Alpha  occ. eigenvalues --   -0.53463  -0.52425  -0.52079  -0.51736  -0.51562
 Alpha  occ. eigenvalues --   -0.50121  -0.48770  -0.48584  -0.46920  -0.45734
 Alpha  occ. eigenvalues --   -0.45015  -0.44510  -0.43190  -0.42324  -0.41798
 Alpha  occ. eigenvalues --   -0.39185  -0.38749  -0.37540  -0.34955
 Alpha virt. eigenvalues --   -0.10801  -0.09909  -0.09397  -0.08721  -0.08362
 Alpha virt. eigenvalues --   -0.05875  -0.05710  -0.05397  -0.02809  -0.02042
 Alpha virt. eigenvalues --   -0.01759  -0.01578  -0.00982   0.00001   0.00335

  Beta  occ. eigenvalues --  -88.33353 -88.33072 -19.00168 -19.00092 -14.29765
  Beta  occ. eigenvalues --  -10.17556 -10.17471 -10.16345 -10.15984 -10.15926
  Beta  occ. eigenvalues --  -10.12384 -10.12301 -10.12093 -10.12009 -10.11715
  Beta  occ. eigenvalues --  -10.11532 -10.11498 -10.11420 -10.11157 -10.11074
  Beta  occ. eigenvalues --  -10.10854 -10.10845 -10.10761 -10.07829 -10.07770
  Beta  occ. eigenvalues --  -10.06995 -10.06980 -10.06168 -10.06122  -7.91808
  Beta  occ. eigenvalues --   -7.91548  -5.93918  -5.93714  -5.93660  -5.93462
  Beta  occ. eigenvalues --   -5.92994  -5.92721  -1.20212  -1.20137  -1.14878
  Beta  occ. eigenvalues --   -1.03002  -1.02682  -1.01035  -0.98936  -0.95438
  Beta  occ. eigenvalues --   -0.92942  -0.92363  -0.91645  -0.91362  -0.90414
  Beta  occ. eigenvalues --   -0.88414  -0.87276  -0.85109  -0.83938  -0.81241
  Beta  occ. eigenvalues --   -0.80572  -0.79301  -0.78277  -0.76922  -0.74568
  Beta  occ. eigenvalues --   -0.73571  -0.72644  -0.72495  -0.71533  -0.70971
  Beta  occ. eigenvalues --   -0.70033  -0.67241  -0.65902  -0.65716  -0.64859
  Beta  occ. eigenvalues --   -0.63072  -0.62101  -0.61944  -0.61433  -0.60412
  Beta  occ. eigenvalues --   -0.60305  -0.60168  -0.59474  -0.59083  -0.59038
  Beta  occ. eigenvalues --   -0.58333  -0.57973  -0.57690  -0.56958  -0.56374
  Beta  occ. eigenvalues --   -0.55680  -0.55009  -0.54642  -0.53860  -0.53274
  Beta  occ. eigenvalues --   -0.52968  -0.52358  -0.51934  -0.51636  -0.51474
  Beta  occ. eigenvalues --   -0.49475  -0.48747  -0.48172  -0.46192  -0.45415
  Beta  occ. eigenvalues --   -0.44744  -0.44102  -0.42139  -0.41643  -0.41056
  Beta  occ. eigenvalues --   -0.38892  -0.38177  -0.34854
  Beta virt. eigenvalues --   -0.23171  -0.10475  -0.09242  -0.08793  -0.08271
  Beta virt. eigenvalues --   -0.07853  -0.05801  -0.05564  -0.04602  -0.02614
  Beta virt. eigenvalues --   -0.01972  -0.01705  -0.01549  -0.00912   0.00068

 Mulliken charges and spin densities:
               1          2
     1  C   -0.063687   0.002431
     2  C   -0.155423   0.000224
     3  S    0.169043   0.018778
     4  C   -0.145181   0.001368
     5  C   -0.225455  -0.049940
     6  C   -0.122827   0.148611
     7  C   -0.088783  -0.000778
     8  C   -0.068357  -0.001468
     9  H    0.104546   0.000506
    10  C   -0.020887   0.083659
    11  C   -0.069253  -0.058745
    12  C   -0.125984   0.114204
    13  C    0.017474  -0.000200
    14  H    0.171953  -0.003552
    15  H    0.129918   0.002672
    16  H    0.175295  -0.005317
    17  C   -0.086907   0.004054
    18  H    0.115597  -0.000178
    19  H    0.109293   0.002137
    20  H    0.126713   0.000028
    21  H    0.113103   0.000040
    22  H    0.126250  -0.000198
    23  S    0.159054   0.001962
    24  N    0.090566   0.335270
    25  C   -0.160803   0.007379
    26  C   -0.030024   0.063667
    27  C   -0.058347   0.072378
    28  C   -0.189287  -0.028711
    29  C   -0.153882  -0.030306
    30  C    0.136381   0.088064
    31  H    0.161025  -0.002802
    32  H    0.171709  -0.003451
    33  H    0.158595   0.001540
    34  H    0.145152   0.001482
    35  C   -0.154443   0.008902
    36  C   -0.044581   0.071711
    37  C   -0.043019   0.063784
    38  C   -0.148916  -0.027739
    39  C   -0.186154  -0.030322
    40  C    0.132269   0.088153
    41  H    0.161213  -0.003429
    42  H    0.172468  -0.002971
    43  H    0.146370   0.001416
    44  H    0.158861   0.001552
    45  O   -0.192050   0.033021
    46  H    0.286851  -0.000797
    47  O   -0.192302   0.032703
    48  H    0.286852  -0.000789
 Sum of Mulliken charges =   1.00000   1.00000

 Dipole moment (field-independent basis, Debye):
    X=             -7.2045    Y=             -1.4302    Z=              3.0314  Tot=              7.9460
 Quadrupole moment (field-independent basis, Debye-Ang):
   XX=            -89.4963   YY=           -126.7043   ZZ=           -167.7626
   XY=             -6.5613   XZ=             -7.3076   YZ=              4.6721

 Normal termination of Gaussian 16 at Mon Jan 18 19:04:25 2021.
