 Gaussian 16, Revision A.03,
 Gaussian 16:  EM64L-G16RevA.03 25-Dec-2016

 ----------------------------------------------------------------------
 #P LC-wHPBE/TZVP iop(3/107=0177800000, 3/108=0177800000) scf=(conver=6
 ,fermi,ndamp=35,noincfock,novaracc,vshift=500,xqc)
 ----------------------------------------------------------------------

 ----------------
 H19 C24 S2 N1 O2
 ----------------
 Symbolic Z-matrix:
 Charge =  0 Multiplicity = 1

                         Standard orientation:
 ---------------------------------------------------------------------
 Center     Atomic      Atomic             Coordinates (Angstroms)
 Number     Number       Type             X           Y           Z
 ---------------------------------------------------------------------
      1          6           0        6.544630   -1.193879   -0.127010
      2          6           0        5.283469   -0.647909   -0.131523
      3         16           0        3.665919   -1.107322   -1.042984
      4          6           0        4.996815    0.486583    0.537830
      5          6           0        1.475687    0.036886   -0.221747
      6          6           0        1.772288   -1.094442   -0.892846
      7          6           0        7.517398   -0.549399    0.618903
      8          6           0        5.951198    1.159916    1.262339
      9          1           0        2.843406    1.345523    1.332578
     10          6           0        0.186077    0.430997    0.028463
     11          6           0        0.773630   -1.912541   -1.366813
     12          6           0       -0.536910   -1.552052   -1.124661
     13          6           0       -0.845585   -0.387156   -0.425435
     14          1           0       -0.045427    1.339810    0.567415
     15          1           0        0.986976   -2.816418   -1.923251
     16          1           0       -1.342687   -2.175375   -1.484620
     17          6           0        7.223748    0.615229    1.306247
     18          1           0        6.782458   -2.097666   -0.673346
     19          1           0        3.815781   -2.439410   -0.928305
     20          1           0        8.517553   -0.958288    0.663525
     21          1           0        5.730059    2.077989    1.791552
     22          1           0        7.997253    1.105431    1.881471
     23         16           0        3.166075    0.851646    0.124057
     24          7           0       -2.182887   -0.044483   -0.184905
     25          6           0       -3.146505   -1.044921    0.067172
     26          6           0       -4.392012   -0.989098   -0.539344
     27          6           0       -2.878694   -2.090316    0.930362
     28          6           0       -5.345494   -1.946131   -0.285899
     29          6           0       -3.822608   -3.066997    1.170354
     30          6           0       -5.062274   -2.995295    0.567641
     31          1           0       -4.612943   -0.174890   -1.215121
     32          1           0       -1.913696   -2.145516    1.414069
     33          1           0       -6.317156   -1.901598   -0.755555
     34          1           0       -3.591387   -3.881585    1.845380
     35          6           0       -2.575405    1.310294   -0.123192
     36          6           0       -3.391681    1.763268    0.894977
     37          6           0       -2.164040    2.211964   -1.093710
     38          6           0       -3.796835    3.081396    0.942072
     39          6           0       -2.544098    3.531176   -1.038879
     40          6           0       -3.368807    3.972023   -0.020733
     41          1           0       -3.723839    1.071840    1.656403
     42          1           0       -1.529535    1.868488   -1.898614
     43          1           0       -4.442764    3.415230    1.744528
     44          1           0       -2.220724    4.234697   -1.791974
     45          8           0       -3.726245    5.281320   -0.019257
     46          1           0       -4.294203    5.466041    0.728132
     47          8           0       -6.032969   -3.920806    0.776143
     48          1           0       -5.721078   -4.593785    1.380389
 ---------------------------------------------------------------------

 SCF Done:  E(RLC-wHPBE) =  -1926.43226205     A.U. after   18 cycles

 The electronic state is 1-A.
 Alpha  occ. eigenvalues --  -88.23168 -88.23085 -18.88283 -18.88176 -14.11334
 Alpha  occ. eigenvalues --  -10.04452 -10.04349 -10.02481 -10.01931 -10.01865
 Alpha  occ. eigenvalues --   -9.99005  -9.98973  -9.98971  -9.98958  -9.98957
 Alpha  occ. eigenvalues --   -9.98947  -9.98923  -9.98848  -9.98818  -9.98724
 Alpha  occ. eigenvalues --   -9.98648  -9.98565  -9.98498  -9.98441  -9.98429
 Alpha  occ. eigenvalues --   -9.98400  -9.98322  -9.98230  -9.97984  -7.81636
 Alpha  occ. eigenvalues --   -7.81565  -5.83731  -5.83663  -5.83559  -5.83484
 Alpha  occ. eigenvalues --   -5.82808  -5.82734  -1.08553  -1.08449  -0.99488
 Alpha  occ. eigenvalues --   -0.91260  -0.89500  -0.89459  -0.87910  -0.84955
 Alpha  occ. eigenvalues --   -0.80287  -0.79691  -0.79451  -0.78821  -0.78694
 Alpha  occ. eigenvalues --   -0.78155  -0.76315  -0.75210  -0.73093  -0.68516
 Alpha  occ. eigenvalues --   -0.67809  -0.66363  -0.65983  -0.64909  -0.64377
 Alpha  occ. eigenvalues --   -0.62851  -0.61278  -0.60185  -0.60064  -0.58504
 Alpha  occ. eigenvalues --   -0.58106  -0.56575  -0.54845  -0.53306  -0.52430
 Alpha  occ. eigenvalues --   -0.51201  -0.50730  -0.49559  -0.49456  -0.49185
 Alpha  occ. eigenvalues --   -0.48866  -0.48284  -0.47774  -0.47631  -0.47359
 Alpha  occ. eigenvalues --   -0.47092  -0.46878  -0.46559  -0.45321  -0.45188
 Alpha  occ. eigenvalues --   -0.44548  -0.43990  -0.43405  -0.42701  -0.41873
 Alpha  occ. eigenvalues --   -0.41297  -0.40915  -0.40480  -0.39962  -0.39640
 Alpha  occ. eigenvalues --   -0.39263  -0.39034  -0.37876  -0.35159  -0.33279
 Alpha  occ. eigenvalues --   -0.32772  -0.32172  -0.32008  -0.31308  -0.29616
 Alpha  occ. eigenvalues --   -0.29393  -0.28751  -0.24697  -0.23206
 Alpha virt. eigenvalues --    0.01921   0.02853   0.03124   0.03920   0.04105
 Alpha virt. eigenvalues --    0.04207   0.04322   0.06126   0.07601   0.08186
 Alpha virt. eigenvalues --    0.08304   0.08781   0.09723   0.10797   0.11387

 Mulliken charges:
               1
     1  C   -0.078022
     2  C   -0.150526
     3  S    0.139217
     4  C   -0.145389
     5  C   -0.209674
     6  C   -0.143504
     7  C   -0.091413
     8  C   -0.080953
     9  H    0.089738
    10  C   -0.059784
    11  C   -0.083703
    12  C   -0.146742
    13  C    0.031660
    14  H    0.146173
    15  H    0.090648
    16  H    0.146287
    17  C   -0.090057
    18  H    0.096356
    19  H    0.087211
    20  H    0.102704
    21  H    0.096670
    22  H    0.102739
    23  S    0.138572
    24  N    0.002231
    25  C   -0.143923
    26  C   -0.049010
    27  C   -0.073212
    28  C   -0.204518
    29  C   -0.175849
    30  C    0.124400
    31  H    0.130778
    32  H    0.141253
    33  H    0.115026
    34  H    0.104507
    35  C   -0.139182
    36  C   -0.064434
    37  C   -0.058712
    38  C   -0.171018
    39  C   -0.201265
    40  C    0.120203
    41  H    0.132607
    42  H    0.141122
    43  H    0.105290
    44  H    0.116132
    45  O   -0.237699
    46  H    0.267558
    47  O   -0.238106
    48  H    0.267613
 Sum of Mulliken charges =  -0.00000

 Dipole moment (field-independent basis, Debye):
    X=             -0.9514    Y=             -1.3861    Z=              3.0606  Tot=              3.4919
 Quadrupole moment (field-independent basis, Debye-Ang):
   XX=           -174.8560   YY=           -165.6971   ZZ=           -177.7486
   XY=             -6.8327   XZ=             -5.3759   YZ=              5.1316

 Normal termination of Gaussian 16 at Tue Jan 19 04:00:30 2021.
