 Gaussian 16, Revision A.03,
 Gaussian 16:  EM64L-G16RevA.03 25-Dec-2016

 ----------------------------------------------------------------------
 #P LC-wHPBE/TZVP iop(3/107=0156200000, 3/108=0156200000) scf=(conver=6
 ,fermi,ndamp=35,noincfock,novaracc,vshift=500,xqc)
 ----------------------------------------------------------------------

 ----------------
 H19 C24 S2 N1 O2
 ----------------
 Symbolic Z-matrix:
 Charge =  0 Multiplicity = 1

                         Standard orientation:
 ---------------------------------------------------------------------
 Center     Atomic      Atomic             Coordinates (Angstroms)
 Number     Number       Type             X           Y           Z
 ---------------------------------------------------------------------
      1          6           0        6.544630   -1.193879   -0.127010
      2          6           0        5.283469   -0.647909   -0.131523
      3         16           0        3.665919   -1.107322   -1.042984
      4          6           0        4.996815    0.486583    0.537830
      5          6           0        1.475687    0.036886   -0.221747
      6          6           0        1.772288   -1.094442   -0.892846
      7          6           0        7.517398   -0.549399    0.618903
      8          6           0        5.951198    1.159916    1.262339
      9          1           0        2.843406    1.345523    1.332578
     10          6           0        0.186077    0.430997    0.028463
     11          6           0        0.773630   -1.912541   -1.366813
     12          6           0       -0.536910   -1.552052   -1.124661
     13          6           0       -0.845585   -0.387156   -0.425435
     14          1           0       -0.045427    1.339810    0.567415
     15          1           0        0.986976   -2.816418   -1.923251
     16          1           0       -1.342687   -2.175375   -1.484620
     17          6           0        7.223748    0.615229    1.306247
     18          1           0        6.782458   -2.097666   -0.673346
     19          1           0        3.815781   -2.439410   -0.928305
     20          1           0        8.517553   -0.958288    0.663525
     21          1           0        5.730059    2.077989    1.791552
     22          1           0        7.997253    1.105431    1.881471
     23         16           0        3.166075    0.851646    0.124057
     24          7           0       -2.182887   -0.044483   -0.184905
     25          6           0       -3.146505   -1.044921    0.067172
     26          6           0       -4.392012   -0.989098   -0.539344
     27          6           0       -2.878694   -2.090316    0.930362
     28          6           0       -5.345494   -1.946131   -0.285899
     29          6           0       -3.822608   -3.066997    1.170354
     30          6           0       -5.062274   -2.995295    0.567641
     31          1           0       -4.612943   -0.174890   -1.215121
     32          1           0       -1.913696   -2.145516    1.414069
     33          1           0       -6.317156   -1.901598   -0.755555
     34          1           0       -3.591387   -3.881585    1.845380
     35          6           0       -2.575405    1.310294   -0.123192
     36          6           0       -3.391681    1.763268    0.894977
     37          6           0       -2.164040    2.211964   -1.093710
     38          6           0       -3.796835    3.081396    0.942072
     39          6           0       -2.544098    3.531176   -1.038879
     40          6           0       -3.368807    3.972023   -0.020733
     41          1           0       -3.723839    1.071840    1.656403
     42          1           0       -1.529535    1.868488   -1.898614
     43          1           0       -4.442764    3.415230    1.744528
     44          1           0       -2.220724    4.234697   -1.791974
     45          8           0       -3.726245    5.281320   -0.019257
     46          1           0       -4.294203    5.466041    0.728132
     47          8           0       -6.032969   -3.920806    0.776143
     48          1           0       -5.721078   -4.593785    1.380389
 ---------------------------------------------------------------------

 SCF Done:  E(RLC-wHPBE) =  -1926.39844236     A.U. after   18 cycles

 The electronic state is 1-A.
 Alpha  occ. eigenvalues --  -88.21920 -88.21838 -18.87131 -18.87026 -14.10200
 Alpha  occ. eigenvalues --  -10.03212 -10.03110 -10.01237 -10.00700 -10.00635
 Alpha  occ. eigenvalues --   -9.97789  -9.97753  -9.97749  -9.97739  -9.97725
 Alpha  occ. eigenvalues --   -9.97724  -9.97706  -9.97630  -9.97592  -9.97499
 Alpha  occ. eigenvalues --   -9.97424  -9.97342  -9.97280  -9.97222  -9.97210
 Alpha  occ. eigenvalues --   -9.97180  -9.97107  -9.97016  -9.96767  -7.80383
 Alpha  occ. eigenvalues --   -7.80313  -5.82494  -5.82429  -5.82326  -5.82253
 Alpha  occ. eigenvalues --   -5.81580  -5.81508  -1.07336  -1.07234  -0.98231
 Alpha  occ. eigenvalues --   -0.89958  -0.88211  -0.88170  -0.86632  -0.83673
 Alpha  occ. eigenvalues --   -0.79023  -0.78444  -0.78205  -0.77577  -0.77451
 Alpha  occ. eigenvalues --   -0.76913  -0.75090  -0.73991  -0.71894  -0.67367
 Alpha  occ. eigenvalues --   -0.66653  -0.65207  -0.64834  -0.63759  -0.63231
 Alpha  occ. eigenvalues --   -0.61719  -0.60169  -0.59095  -0.58969  -0.57391
 Alpha  occ. eigenvalues --   -0.57036  -0.55485  -0.53775  -0.52249  -0.51376
 Alpha  occ. eigenvalues --   -0.50166  -0.49696  -0.48532  -0.48431  -0.48159
 Alpha  occ. eigenvalues --   -0.47834  -0.47257  -0.46763  -0.46622  -0.46348
 Alpha  occ. eigenvalues --   -0.46061  -0.45807  -0.45557  -0.44306  -0.44224
 Alpha  occ. eigenvalues --   -0.43537  -0.42962  -0.42407  -0.41755  -0.40976
 Alpha  occ. eigenvalues --   -0.40346  -0.39920  -0.39479  -0.39080  -0.38730
 Alpha  occ. eigenvalues --   -0.38351  -0.38128  -0.36948  -0.34253  -0.32443
 Alpha  occ. eigenvalues --   -0.31968  -0.31377  -0.31223  -0.30520  -0.28853
 Alpha  occ. eigenvalues --   -0.28635  -0.28023  -0.24045  -0.22577
 Alpha virt. eigenvalues --    0.01315   0.02238   0.02516   0.03286   0.03485
 Alpha virt. eigenvalues --    0.03561   0.03662   0.05473   0.06921   0.07533
 Alpha virt. eigenvalues --    0.07651   0.08097   0.09089   0.10173   0.10764

 Mulliken charges:
               1
     1  C   -0.076739
     2  C   -0.148006
     3  S    0.133537
     4  C   -0.142786
     5  C   -0.206830
     6  C   -0.139230
     7  C   -0.089952
     8  C   -0.079677
     9  H    0.090064
    10  C   -0.059449
    11  C   -0.082339
    12  C   -0.145725
    13  C    0.031625
    14  H    0.143570
    15  H    0.089026
    16  H    0.143865
    17  C   -0.088582
    18  H    0.094935
    19  H    0.087537
    20  H    0.101264
    21  H    0.095247
    22  H    0.101299
    23  S    0.133034
    24  N    0.008352
    25  C   -0.143239
    26  C   -0.049273
    27  C   -0.073466
    28  C   -0.201825
    29  C   -0.173036
    30  C    0.124805
    31  H    0.128552
    32  H    0.139033
    33  H    0.113351
    34  H    0.102846
    35  C   -0.138796
    36  C   -0.063833
    37  C   -0.059603
    38  C   -0.168285
    39  C   -0.198584
    40  C    0.120673
    41  H    0.130443
    42  H    0.138826
    43  H    0.103608
    44  H    0.114478
    45  O   -0.237712
    46  H    0.267536
    47  O   -0.238127
    48  H    0.267592
 Sum of Mulliken charges =  -0.00000

 Dipole moment (field-independent basis, Debye):
    X=             -0.9902    Y=             -1.3708    Z=              3.0519  Tot=              3.4891
 Quadrupole moment (field-independent basis, Debye-Ang):
   XX=           -174.9095   YY=           -165.6983   ZZ=           -177.8937
   XY=             -6.7733   XZ=             -5.3968   YZ=              5.0763

 Normal termination of Gaussian 16 at Mon Jan 18 08:07:16 2021.
