 Gaussian 16, Revision A.03,
 Gaussian 16:  EM64L-G16RevA.03 25-Dec-2016

 ----------------------------------------------------------------------
 #P LC-wHPBE/TZVP iop(3/107=0177500000, 3/108=0177500000) scf=(conver=6
 ,fermi,ndamp=35,noincfock,novaracc,vshift=500,xqc)
 ----------------------------------------------------------------------

 ----------------
 H19 C24 S2 N1 O2
 ----------------
 Symbolic Z-matrix:
 Charge =  1 Multiplicity = 2

                         Standard orientation:
 ---------------------------------------------------------------------
 Center     Atomic      Atomic             Coordinates (Angstroms)
 Number     Number       Type             X           Y           Z
 ---------------------------------------------------------------------
      1          6           0        6.544630   -1.193879   -0.127010
      2          6           0        5.283469   -0.647909   -0.131523
      3         16           0        3.665919   -1.107322   -1.042984
      4          6           0        4.996815    0.486583    0.537830
      5          6           0        1.475687    0.036886   -0.221747
      6          6           0        1.772288   -1.094442   -0.892846
      7          6           0        7.517398   -0.549399    0.618903
      8          6           0        5.951198    1.159916    1.262339
      9          1           0        2.843406    1.345523    1.332578
     10          6           0        0.186077    0.430997    0.028463
     11          6           0        0.773630   -1.912541   -1.366813
     12          6           0       -0.536910   -1.552052   -1.124661
     13          6           0       -0.845585   -0.387156   -0.425435
     14          1           0       -0.045427    1.339810    0.567415
     15          1           0        0.986976   -2.816418   -1.923251
     16          1           0       -1.342687   -2.175375   -1.484620
     17          6           0        7.223748    0.615229    1.306247
     18          1           0        6.782458   -2.097666   -0.673346
     19          1           0        3.815781   -2.439410   -0.928305
     20          1           0        8.517553   -0.958288    0.663525
     21          1           0        5.730059    2.077989    1.791552
     22          1           0        7.997253    1.105431    1.881471
     23         16           0        3.166075    0.851646    0.124057
     24          7           0       -2.182887   -0.044483   -0.184905
     25          6           0       -3.146505   -1.044921    0.067172
     26          6           0       -4.392012   -0.989098   -0.539344
     27          6           0       -2.878694   -2.090316    0.930362
     28          6           0       -5.345494   -1.946131   -0.285899
     29          6           0       -3.822608   -3.066997    1.170354
     30          6           0       -5.062274   -2.995295    0.567641
     31          1           0       -4.612943   -0.174890   -1.215121
     32          1           0       -1.913696   -2.145516    1.414069
     33          1           0       -6.317156   -1.901598   -0.755555
     34          1           0       -3.591387   -3.881585    1.845380
     35          6           0       -2.575405    1.310294   -0.123192
     36          6           0       -3.391681    1.763268    0.894977
     37          6           0       -2.164040    2.211964   -1.093710
     38          6           0       -3.796835    3.081396    0.942072
     39          6           0       -2.544098    3.531176   -1.038879
     40          6           0       -3.368807    3.972023   -0.020733
     41          1           0       -3.723839    1.071840    1.656403
     42          1           0       -1.529535    1.868488   -1.898614
     43          1           0       -4.442764    3.415230    1.744528
     44          1           0       -2.220724    4.234697   -1.791974
     45          8           0       -3.726245    5.281320   -0.019257
     46          1           0       -4.294203    5.466041    0.728132
     47          8           0       -6.032969   -3.920806    0.776143
     48          1           0       -5.721078   -4.593785    1.380389
 ---------------------------------------------------------------------

 SCF Done:  E(ULC-wHPBE) =  -1926.18989404     A.U. after   33 cycles
 SCF Done:  E(ULC-wHPBE) =  -1926.19989786     a.u. after   42 cycles

 The electronic state is 2-A.
 Alpha  occ. eigenvalues --  -88.33528 -88.33238 -19.00422 -19.00348 -14.30736
 Alpha  occ. eigenvalues --  -10.17856 -10.17774 -10.16492 -10.16152 -10.16094
 Alpha  occ. eigenvalues --  -10.12678 -10.12595 -10.12372 -10.12291 -10.12020
 Alpha  occ. eigenvalues --  -10.11872 -10.11646 -10.11573 -10.11448 -10.11261
 Alpha  occ. eigenvalues --  -10.11001 -10.10966 -10.10908 -10.07992 -10.07933
 Alpha  occ. eigenvalues --  -10.07154 -10.07144 -10.06331 -10.06283  -7.91985
 Alpha  occ. eigenvalues --   -7.91715  -5.94086  -5.93884  -5.93826  -5.93625
 Alpha  occ. eigenvalues --   -5.93187  -5.92885  -1.20554  -1.20481  -1.16052
 Alpha  occ. eigenvalues --   -1.03391  -1.03066  -1.01455  -0.99199  -0.95732
 Alpha  occ. eigenvalues --   -0.93320  -0.92674  -0.91951  -0.91676  -0.90735
 Alpha  occ. eigenvalues --   -0.88691  -0.87792  -0.85309  -0.84206  -0.81578
 Alpha  occ. eigenvalues --   -0.80949  -0.79684  -0.78621  -0.77244  -0.74897
 Alpha  occ. eigenvalues --   -0.73742  -0.72924  -0.72742  -0.71872  -0.71236
 Alpha  occ. eigenvalues --   -0.70257  -0.67842  -0.66145  -0.65956  -0.65116
 Alpha  occ. eigenvalues --   -0.63416  -0.62356  -0.62227  -0.61739  -0.60648
 Alpha  occ. eigenvalues --   -0.60555  -0.60413  -0.59945  -0.59555  -0.59443
 Alpha  occ. eigenvalues --   -0.58572  -0.58368  -0.57959  -0.57136  -0.56937
 Alpha  occ. eigenvalues --   -0.56165  -0.55246  -0.54846  -0.54362  -0.53746
 Alpha  occ. eigenvalues --   -0.53603  -0.52551  -0.52204  -0.51866  -0.51693
 Alpha  occ. eigenvalues --   -0.50253  -0.48883  -0.48707  -0.47042  -0.45850
 Alpha  occ. eigenvalues --   -0.45129  -0.44623  -0.43296  -0.42431  -0.41901
 Alpha  occ. eigenvalues --   -0.39281  -0.38845  -0.37637  -0.35036
 Alpha virt. eigenvalues --   -0.10727  -0.09836  -0.09326  -0.08641  -0.08281
 Alpha virt. eigenvalues --   -0.05784  -0.05624  -0.05311  -0.02716  -0.01949
 Alpha virt. eigenvalues --   -0.01674  -0.01493  -0.00902   0.00086   0.00414

  Beta  occ. eigenvalues --  -88.33516 -88.33238 -19.00328 -19.00254 -14.29966
  Beta  occ. eigenvalues --  -10.17735 -10.17652 -10.16526 -10.16166 -10.16109
  Beta  occ. eigenvalues --  -10.12565 -10.12485 -10.12274 -10.12192 -10.11897
  Beta  occ. eigenvalues --  -10.11710 -10.11672 -10.11596 -10.11330 -10.11243
  Beta  occ. eigenvalues --  -10.11028 -10.11013 -10.10936 -10.07989 -10.07931
  Beta  occ. eigenvalues --  -10.07156 -10.07142 -10.06328 -10.06283  -7.91973
  Beta  occ. eigenvalues --   -7.91715  -5.94080  -5.93875  -5.93825  -5.93626
  Beta  occ. eigenvalues --   -5.93155  -5.92884  -1.20383  -1.20309  -1.15076
  Beta  occ. eigenvalues --   -1.03187  -1.02871  -1.01219  -0.99111  -0.95613
  Beta  occ. eigenvalues --   -0.93124  -0.92544  -0.91826  -0.91541  -0.90589
  Beta  occ. eigenvalues --   -0.88583  -0.87445  -0.85273  -0.84103  -0.81407
  Beta  occ. eigenvalues --   -0.80740  -0.79469  -0.78441  -0.77086  -0.74728
  Beta  occ. eigenvalues --   -0.73724  -0.72804  -0.72650  -0.71688  -0.71122
  Beta  occ. eigenvalues --   -0.70184  -0.67396  -0.66051  -0.65863  -0.65008
  Beta  occ. eigenvalues --   -0.63218  -0.62249  -0.62093  -0.61577  -0.60556
  Beta  occ. eigenvalues --   -0.60450  -0.60313  -0.59624  -0.59226  -0.59190
  Beta  occ. eigenvalues --   -0.58468  -0.58116  -0.57828  -0.57092  -0.56511
  Beta  occ. eigenvalues --   -0.55817  -0.55142  -0.54769  -0.53997  -0.53408
  Beta  occ. eigenvalues --   -0.53104  -0.52483  -0.52058  -0.51766  -0.51605
  Beta  occ. eigenvalues --   -0.49597  -0.48860  -0.48287  -0.46304  -0.45530
  Beta  occ. eigenvalues --   -0.44858  -0.44210  -0.42234  -0.41743  -0.41148
  Beta  occ. eigenvalues --   -0.38985  -0.38266  -0.34939
  Beta virt. eigenvalues --   -0.23136  -0.10399  -0.09165  -0.08717  -0.08186
  Beta virt. eigenvalues --   -0.07767  -0.05710  -0.05473  -0.04508  -0.02519
  Beta virt. eigenvalues --   -0.01880  -0.01619  -0.01465  -0.00832   0.00152

 Mulliken charges and spin densities:
               1          2
     1  C   -0.063892   0.002406
     2  C   -0.155768   0.000322
     3  S    0.169542   0.018310
     4  C   -0.145543   0.001252
     5  C   -0.226097  -0.051074
     6  C   -0.123259   0.149351
     7  C   -0.089030  -0.000794
     8  C   -0.068571  -0.001454
     9  H    0.104447   0.000471
    10  C   -0.020735   0.084867
    11  C   -0.069484  -0.059609
    12  C   -0.126097   0.114853
    13  C    0.017250  -0.001104
    14  H    0.172380  -0.003592
    15  H    0.130185   0.002721
    16  H    0.175672  -0.005343
    17  C   -0.087167   0.003958
    18  H    0.115771  -0.000175
    19  H    0.109194   0.002061
    20  H    0.126885   0.000032
    21  H    0.113273   0.000042
    22  H    0.126418  -0.000197
    23  S    0.159716   0.001774
    24  N    0.090560   0.337462
    25  C   -0.161129   0.006614
    26  C   -0.029939   0.064247
    27  C   -0.058266   0.072953
    28  C   -0.189711  -0.029378
    29  C   -0.154344  -0.030955
    30  C    0.136390   0.088530
    31  H    0.161385  -0.002824
    32  H    0.172090  -0.003472
    33  H    0.158855   0.001569
    34  H    0.145416   0.001509
    35  C   -0.154778   0.008152
    36  C   -0.044562   0.072373
    37  C   -0.042853   0.064420
    38  C   -0.149361  -0.028427
    39  C   -0.186563  -0.031020
    40  C    0.132287   0.088709
    41  H    0.161582  -0.003456
    42  H    0.172867  -0.002997
    43  H    0.146641   0.001444
    44  H    0.159133   0.001581
    45  O   -0.192106   0.032907
    46  H    0.286848  -0.000795
    47  O   -0.192376   0.032563
    48  H    0.286844  -0.000786
 Sum of Mulliken charges =   1.00000   1.00000

 Dipole moment (field-independent basis, Debye):
    X=             -7.2225    Y=             -1.4302    Z=              3.0314  Tot=              7.9624
 Quadrupole moment (field-independent basis, Debye-Ang):
   XX=            -89.5857   YY=           -126.7152   ZZ=           -167.7472
   XY=             -6.5743   XZ=             -7.3087   YZ=              4.6763

 Normal termination of Gaussian 16 at Tue Jan 19 03:43:51 2021.
