 Gaussian 16, Revision A.03,
 Gaussian 16:  EM64L-G16RevA.03 25-Dec-2016

 ----------------------------------------------------------------------
 #P LC-wHPBE/TZVP iop(3/107=0221900000, 3/108=0221900000) scf=(conver=6
 ,fermi,ndamp=35,noincfock,novaracc,vshift=500,xqc)
 ----------------------------------------------------------------------

 ----------------
 H19 C24 S2 N1 O2
 ----------------
 Symbolic Z-matrix:
 Charge =  1 Multiplicity = 2

                         Standard orientation:
 ---------------------------------------------------------------------
 Center     Atomic      Atomic             Coordinates (Angstroms)
 Number     Number       Type             X           Y           Z
 ---------------------------------------------------------------------
      1          6           0        6.544630   -1.193879   -0.127010
      2          6           0        5.283469   -0.647909   -0.131523
      3         16           0        3.665919   -1.107322   -1.042984
      4          6           0        4.996815    0.486583    0.537830
      5          6           0        1.475687    0.036886   -0.221747
      6          6           0        1.772288   -1.094442   -0.892846
      7          6           0        7.517398   -0.549399    0.618903
      8          6           0        5.951198    1.159916    1.262339
      9          1           0        2.843406    1.345523    1.332578
     10          6           0        0.186077    0.430997    0.028463
     11          6           0        0.773630   -1.912541   -1.366813
     12          6           0       -0.536910   -1.552052   -1.124661
     13          6           0       -0.845585   -0.387156   -0.425435
     14          1           0       -0.045427    1.339810    0.567415
     15          1           0        0.986976   -2.816418   -1.923251
     16          1           0       -1.342687   -2.175375   -1.484620
     17          6           0        7.223748    0.615229    1.306247
     18          1           0        6.782458   -2.097666   -0.673346
     19          1           0        3.815781   -2.439410   -0.928305
     20          1           0        8.517553   -0.958288    0.663525
     21          1           0        5.730059    2.077989    1.791552
     22          1           0        7.997253    1.105431    1.881471
     23         16           0        3.166075    0.851646    0.124057
     24          7           0       -2.182887   -0.044483   -0.184905
     25          6           0       -3.146505   -1.044921    0.067172
     26          6           0       -4.392012   -0.989098   -0.539344
     27          6           0       -2.878694   -2.090316    0.930362
     28          6           0       -5.345494   -1.946131   -0.285899
     29          6           0       -3.822608   -3.066997    1.170354
     30          6           0       -5.062274   -2.995295    0.567641
     31          1           0       -4.612943   -0.174890   -1.215121
     32          1           0       -1.913696   -2.145516    1.414069
     33          1           0       -6.317156   -1.901598   -0.755555
     34          1           0       -3.591387   -3.881585    1.845380
     35          6           0       -2.575405    1.310294   -0.123192
     36          6           0       -3.391681    1.763268    0.894977
     37          6           0       -2.164040    2.211964   -1.093710
     38          6           0       -3.796835    3.081396    0.942072
     39          6           0       -2.544098    3.531176   -1.038879
     40          6           0       -3.368807    3.972023   -0.020733
     41          1           0       -3.723839    1.071840    1.656403
     42          1           0       -1.529535    1.868488   -1.898614
     43          1           0       -4.442764    3.415230    1.744528
     44          1           0       -2.220724    4.234697   -1.791974
     45          8           0       -3.726245    5.281320   -0.019257
     46          1           0       -4.294203    5.466041    0.728132
     47          8           0       -6.032969   -3.920806    0.776143
     48          1           0       -5.721078   -4.593785    1.380389
 ---------------------------------------------------------------------

 SCF Done:  E(ULC-wHPBE) =  -1926.25068559     A.U. after   33 cycles
 SCF Done:  E(ULC-wHPBE) =  -1926.26362095     a.u. after   11 cycles

 The electronic state is 2-A.
 Alpha  occ. eigenvalues --  -88.36020 -88.35760 -19.02749 -19.02687 -14.33694
 Alpha  occ. eigenvalues --  -10.20492 -10.20422 -10.19146 -10.18781 -10.18735
 Alpha  occ. eigenvalues --  -10.15342 -10.15270 -10.15028 -10.14956 -10.14698
 Alpha  occ. eigenvalues --  -10.14507 -10.14186 -10.14122 -10.13995 -10.13814
 Alpha  occ. eigenvalues --  -10.13532 -10.13466 -10.13446 -10.10418 -10.10361
 Alpha  occ. eigenvalues --  -10.09585 -10.09575 -10.08748 -10.08702  -7.94500
 Alpha  occ. eigenvalues --   -7.94256  -5.96555  -5.96344  -5.96320  -5.96109
 Alpha  occ. eigenvalues --   -5.95627  -5.95355  -1.23050  -1.22988  -1.18996
 Alpha  occ. eigenvalues --   -1.06138  -1.05824  -1.04171  -1.01833  -0.98344
 Alpha  occ. eigenvalues --   -0.95948  -0.95295  -0.94569  -0.94279  -0.93298
 Alpha  occ. eigenvalues --   -0.91202  -0.90296  -0.87730  -0.86635  -0.83952
 Alpha  occ. eigenvalues --   -0.83350  -0.82078  -0.80968  -0.79582  -0.77168
 Alpha  occ. eigenvalues --   -0.75967  -0.75171  -0.74927  -0.74048  -0.73392
 Alpha  occ. eigenvalues --   -0.72429  -0.70081  -0.68267  -0.68025  -0.67210
 Alpha  occ. eigenvalues --   -0.65489  -0.64423  -0.64298  -0.63793  -0.62663
 Alpha  occ. eigenvalues --   -0.62610  -0.62448  -0.62045  -0.61669  -0.61435
 Alpha  occ. eigenvalues --   -0.60539  -0.60347  -0.59879  -0.59040  -0.58923
 Alpha  occ. eigenvalues --   -0.58121  -0.57114  -0.56635  -0.56277  -0.55685
 Alpha  occ. eigenvalues --   -0.55536  -0.54375  -0.53926  -0.53657  -0.53485
 Alpha  occ. eigenvalues --   -0.52081  -0.50497  -0.50420  -0.48732  -0.47367
 Alpha  occ. eigenvalues --   -0.46619  -0.46123  -0.44728  -0.43843  -0.43326
 Alpha  occ. eigenvalues --   -0.40581  -0.40136  -0.38930  -0.36132
 Alpha virt. eigenvalues --   -0.09776  -0.08906  -0.08391  -0.07605  -0.07250
 Alpha virt. eigenvalues --   -0.04643  -0.04545  -0.04222  -0.01545  -0.00797
 Alpha virt. eigenvalues --   -0.00556  -0.00383   0.00136   0.01162   0.01445

  Beta  occ. eigenvalues --  -88.36011 -88.35761 -19.02658 -19.02594 -14.32864
  Beta  occ. eigenvalues --  -10.20362 -10.20291 -10.19200 -10.18812 -10.18765
  Beta  occ. eigenvalues --  -10.15219 -10.15148 -10.14919 -10.14845 -10.14557
  Beta  occ. eigenvalues --  -10.14332 -10.14223 -10.14156 -10.13897 -10.13780
  Beta  occ. eigenvalues --  -10.13569 -10.13530 -10.13487 -10.10416 -10.10359
  Beta  occ. eigenvalues --  -10.09587 -10.09573 -10.08746 -10.08702  -7.94489
  Beta  occ. eigenvalues --   -7.94257  -5.96551  -5.96336  -5.96319  -5.96111
  Beta  occ. eigenvalues --   -5.95599  -5.95356  -1.22882  -1.22818  -1.17950
  Beta  occ. eigenvalues --   -1.05930  -1.05624  -1.03919  -1.01741  -0.98222
  Beta  occ. eigenvalues --   -0.95750  -0.95166  -0.94443  -0.94142  -0.93148
  Beta  occ. eigenvalues --   -0.91087  -0.89906  -0.87693  -0.86527  -0.83771
  Beta  occ. eigenvalues --   -0.83128  -0.81847  -0.80775  -0.79422  -0.76995
  Beta  occ. eigenvalues --   -0.75949  -0.75044  -0.74828  -0.73860  -0.73269
  Beta  occ. eigenvalues --   -0.72357  -0.69559  -0.68164  -0.67932  -0.67095
  Beta  occ. eigenvalues --   -0.65270  -0.64307  -0.64149  -0.63617  -0.62562
  Beta  occ. eigenvalues --   -0.62479  -0.62322  -0.61709  -0.61303  -0.61186
  Beta  occ. eigenvalues --   -0.60384  -0.60104  -0.59753  -0.58997  -0.58429
  Beta  occ. eigenvalues --   -0.57713  -0.56995  -0.56546  -0.55905  -0.55277
  Beta  occ. eigenvalues --   -0.54949  -0.54261  -0.53769  -0.53561  -0.53396
  Beta  occ. eigenvalues --   -0.51283  -0.50457  -0.49894  -0.47839  -0.47028
  Beta  occ. eigenvalues --   -0.46345  -0.45661  -0.43527  -0.43100  -0.42376
  Beta  occ. eigenvalues --   -0.40264  -0.39482  -0.36054
  Beta virt. eigenvalues --   -0.22699  -0.09417  -0.08190  -0.07733  -0.07072
  Beta virt. eigenvalues --   -0.06654  -0.04572  -0.04346  -0.03279  -0.01321
  Beta virt. eigenvalues --   -0.00730  -0.00491  -0.00358   0.00201   0.01230

 Mulliken charges and spin densities:
               1          2
     1  C   -0.066013   0.002236
     2  C   -0.163493   0.000974
     3  S    0.179386   0.013862
     4  C   -0.153542   0.000340
     5  C   -0.237443  -0.067334
     6  C   -0.132684   0.162408
     7  C   -0.093866  -0.001039
     8  C   -0.070748  -0.001403
     9  H    0.103459   0.000239
    10  C   -0.017038   0.101064
    11  C   -0.071078  -0.073923
    12  C   -0.128416   0.126360
    13  C    0.011884  -0.015392
    14  H    0.179797  -0.004109
    15  H    0.135333   0.003317
    16  H    0.182386  -0.005766
    17  C   -0.092118   0.003229
    18  H    0.119795  -0.000145
    19  H    0.108231   0.001573
    20  H    0.130745   0.000062
    21  H    0.117282   0.000052
    22  H    0.130247  -0.000180
    23  S    0.171161   0.000389
    24  N    0.088709   0.365873
    25  C   -0.167203  -0.005482
    26  C   -0.030064   0.073182
    27  C   -0.058479   0.081964
    28  C   -0.195308  -0.039842
    29  C   -0.160799  -0.041442
    30  C    0.135590   0.096387
    31  H    0.167766  -0.003139
    32  H    0.178609  -0.003793
    33  H    0.163762   0.001998
    34  H    0.150161   0.001940
    35  C   -0.160768  -0.003797
    36  C   -0.045754   0.082071
    37  C   -0.041921   0.073662
    38  C   -0.155689  -0.039200
    39  C   -0.192165  -0.041781
    40  C    0.131570   0.097208
    41  H    0.167979  -0.003827
    42  H    0.179573  -0.003351
    43  H    0.151463   0.001882
    44  H    0.164082   0.002017
    45  O   -0.193866   0.031343
    46  H    0.286882  -0.000772
    47  O   -0.194241   0.030845
    48  H    0.286844  -0.000759
 Sum of Mulliken charges =   1.00000   1.00000

 Dipole moment (field-independent basis, Debye):
    X=             -7.3506    Y=             -1.4540    Z=              3.0338  Tot=              8.0840
 Quadrupole moment (field-independent basis, Debye-Ang):
   XX=            -90.6412   YY=           -126.9856   ZZ=           -167.5151
   XY=             -6.7373   XZ=             -7.2935   YZ=              4.7758

 Normal termination of Gaussian 16 at Mon Jan 18 06:32:35 2021.
