 Gaussian 16, Revision A.03,
 Gaussian 16:  EM64L-G16RevA.03 25-Dec-2016

 ----------------------------------------------------------------------
 #P LC-wHPBE/TZVP iop(3/107=0177800000, 3/108=0177800000) scf=(conver=6
 ,fermi,ndamp=35,noincfock,novaracc,vshift=500,xqc)
 ----------------------------------------------------------------------

 ----------------
 H19 C24 S2 N1 O2
 ----------------
 Symbolic Z-matrix:
 Charge =  1 Multiplicity = 2

                         Standard orientation:
 ---------------------------------------------------------------------
 Center     Atomic      Atomic             Coordinates (Angstroms)
 Number     Number       Type             X           Y           Z
 ---------------------------------------------------------------------
      1          6           0        6.544630   -1.193879   -0.127010
      2          6           0        5.283469   -0.647909   -0.131523
      3         16           0        3.665919   -1.107322   -1.042984
      4          6           0        4.996815    0.486583    0.537830
      5          6           0        1.475687    0.036886   -0.221747
      6          6           0        1.772288   -1.094442   -0.892846
      7          6           0        7.517398   -0.549399    0.618903
      8          6           0        5.951198    1.159916    1.262339
      9          1           0        2.843406    1.345523    1.332578
     10          6           0        0.186077    0.430997    0.028463
     11          6           0        0.773630   -1.912541   -1.366813
     12          6           0       -0.536910   -1.552052   -1.124661
     13          6           0       -0.845585   -0.387156   -0.425435
     14          1           0       -0.045427    1.339810    0.567415
     15          1           0        0.986976   -2.816418   -1.923251
     16          1           0       -1.342687   -2.175375   -1.484620
     17          6           0        7.223748    0.615229    1.306247
     18          1           0        6.782458   -2.097666   -0.673346
     19          1           0        3.815781   -2.439410   -0.928305
     20          1           0        8.517553   -0.958288    0.663525
     21          1           0        5.730059    2.077989    1.791552
     22          1           0        7.997253    1.105431    1.881471
     23         16           0        3.166075    0.851646    0.124057
     24          7           0       -2.182887   -0.044483   -0.184905
     25          6           0       -3.146505   -1.044921    0.067172
     26          6           0       -4.392012   -0.989098   -0.539344
     27          6           0       -2.878694   -2.090316    0.930362
     28          6           0       -5.345494   -1.946131   -0.285899
     29          6           0       -3.822608   -3.066997    1.170354
     30          6           0       -5.062274   -2.995295    0.567641
     31          1           0       -4.612943   -0.174890   -1.215121
     32          1           0       -1.913696   -2.145516    1.414069
     33          1           0       -6.317156   -1.901598   -0.755555
     34          1           0       -3.591387   -3.881585    1.845380
     35          6           0       -2.575405    1.310294   -0.123192
     36          6           0       -3.391681    1.763268    0.894977
     37          6           0       -2.164040    2.211964   -1.093710
     38          6           0       -3.796835    3.081396    0.942072
     39          6           0       -2.544098    3.531176   -1.038879
     40          6           0       -3.368807    3.972023   -0.020733
     41          1           0       -3.723839    1.071840    1.656403
     42          1           0       -1.529535    1.868488   -1.898614
     43          1           0       -4.442764    3.415230    1.744528
     44          1           0       -2.220724    4.234697   -1.791974
     45          8           0       -3.726245    5.281320   -0.019257
     46          1           0       -4.294203    5.466041    0.728132
     47          8           0       -6.032969   -3.920806    0.776143
     48          1           0       -5.721078   -4.593785    1.380389
 ---------------------------------------------------------------------

 SCF Done:  E(ULC-wHPBE) =  -1926.19011295     A.U. after   33 cycles
 SCF Done:  E(ULC-wHPBE) =  -1926.20034033     a.u. after   42 cycles

 The electronic state is 2-A.
 Alpha  occ. eigenvalues --  -88.33545 -88.33255 -19.00438 -19.00364 -14.30756
 Alpha  occ. eigenvalues --  -10.17874 -10.17792 -10.16509 -10.16169 -10.16112
 Alpha  occ. eigenvalues --  -10.12696 -10.12613 -10.12390 -10.12310 -10.12038
 Alpha  occ. eigenvalues --  -10.11890 -10.11663 -10.11591 -10.11465 -10.11278
 Alpha  occ. eigenvalues --  -10.11019 -10.10983 -10.10925 -10.08008 -10.07949
 Alpha  occ. eigenvalues --  -10.07171 -10.07161 -10.06347 -10.06299  -7.92002
 Alpha  occ. eigenvalues --   -7.91732  -5.94103  -5.93901  -5.93843  -5.93641
 Alpha  occ. eigenvalues --   -5.93203  -5.92902  -1.20571  -1.20498  -1.16072
 Alpha  occ. eigenvalues --   -1.03409  -1.03085  -1.01474  -0.99217  -0.95749
 Alpha  occ. eigenvalues --   -0.93338  -0.92692  -0.91969  -0.91694  -0.90752
 Alpha  occ. eigenvalues --   -0.88709  -0.87809  -0.85325  -0.84223  -0.81594
 Alpha  occ. eigenvalues --   -0.80966  -0.79701  -0.78638  -0.77261  -0.74913
 Alpha  occ. eigenvalues --   -0.73757  -0.72940  -0.72758  -0.71887  -0.71251
 Alpha  occ. eigenvalues --   -0.70272  -0.67858  -0.66160  -0.65971  -0.65131
 Alpha  occ. eigenvalues --   -0.63431  -0.62370  -0.62241  -0.61753  -0.60662
 Alpha  occ. eigenvalues --   -0.60569  -0.60427  -0.59960  -0.59570  -0.59457
 Alpha  occ. eigenvalues --   -0.58586  -0.58382  -0.57972  -0.57149  -0.56951
 Alpha  occ. eigenvalues --   -0.56179  -0.55260  -0.54859  -0.54376  -0.53759
 Alpha  occ. eigenvalues --   -0.53617  -0.52563  -0.52216  -0.51879  -0.51706
 Alpha  occ. eigenvalues --   -0.50266  -0.48894  -0.48719  -0.47054  -0.45861
 Alpha  occ. eigenvalues --   -0.45140  -0.44634  -0.43306  -0.42442  -0.41912
 Alpha  occ. eigenvalues --   -0.39291  -0.38854  -0.37646  -0.35044
 Alpha virt. eigenvalues --   -0.10719  -0.09828  -0.09318  -0.08633  -0.08273
 Alpha virt. eigenvalues --   -0.05776  -0.05616  -0.05303  -0.02707  -0.01940
 Alpha virt. eigenvalues --   -0.01665  -0.01485  -0.00894   0.00094   0.00422

  Beta  occ. eigenvalues --  -88.33533 -88.33255 -19.00344 -19.00270 -14.29986
  Beta  occ. eigenvalues --  -10.17753 -10.17670 -10.16544 -10.16184 -10.16127
  Beta  occ. eigenvalues --  -10.12583 -10.12503 -10.12292 -10.12210 -10.11915
  Beta  occ. eigenvalues --  -10.11727 -10.11689 -10.11614 -10.11347 -10.11261
  Beta  occ. eigenvalues --  -10.11045 -10.11030 -10.10954 -10.08006 -10.07947
  Beta  occ. eigenvalues --  -10.07172 -10.07158 -10.06344 -10.06299  -7.91990
  Beta  occ. eigenvalues --   -7.91732  -5.94097  -5.93892  -5.93842  -5.93642
  Beta  occ. eigenvalues --   -5.93171  -5.92901  -1.20400  -1.20326  -1.15095
  Beta  occ. eigenvalues --   -1.03206  -1.02890  -1.01238  -0.99129  -0.95631
  Beta  occ. eigenvalues --   -0.93142  -0.92562  -0.91844  -0.91559  -0.90606
  Beta  occ. eigenvalues --   -0.88600  -0.87462  -0.85289  -0.84120  -0.81424
  Beta  occ. eigenvalues --   -0.80756  -0.79485  -0.78457  -0.77102  -0.74744
  Beta  occ. eigenvalues --   -0.73739  -0.72820  -0.72665  -0.71704  -0.71138
  Beta  occ. eigenvalues --   -0.70199  -0.67411  -0.66066  -0.65877  -0.65023
  Beta  occ. eigenvalues --   -0.63232  -0.62264  -0.62108  -0.61592  -0.60570
  Beta  occ. eigenvalues --   -0.60465  -0.60327  -0.59638  -0.59240  -0.59205
  Beta  occ. eigenvalues --   -0.58482  -0.58130  -0.57842  -0.57106  -0.56525
  Beta  occ. eigenvalues --   -0.55830  -0.55155  -0.54781  -0.54011  -0.53421
  Beta  occ. eigenvalues --   -0.53117  -0.52495  -0.52070  -0.51779  -0.51618
  Beta  occ. eigenvalues --   -0.49610  -0.48872  -0.48298  -0.46315  -0.45541
  Beta  occ. eigenvalues --   -0.44869  -0.44220  -0.42243  -0.41753  -0.41157
  Beta  occ. eigenvalues --   -0.38995  -0.38275  -0.34947
  Beta virt. eigenvalues --   -0.23133  -0.10391  -0.09158  -0.08710  -0.08177
  Beta virt. eigenvalues --   -0.07759  -0.05701  -0.05464  -0.04499  -0.02510
  Beta virt. eigenvalues --   -0.01870  -0.01611  -0.01457  -0.00824   0.00160

 Mulliken charges and spin densities:
               1          2
     1  C   -0.063912   0.002404
     2  C   -0.155801   0.000332
     3  S    0.169594   0.018264
     4  C   -0.145578   0.001240
     5  C   -0.226160  -0.051191
     6  C   -0.123302   0.149426
     7  C   -0.089055  -0.000796
     8  C   -0.068593  -0.001453
     9  H    0.104436   0.000467
    10  C   -0.020721   0.084990
    11  C   -0.069507  -0.059697
    12  C   -0.126111   0.114919
    13  C    0.017227  -0.001195
    14  H    0.172423  -0.003596
    15  H    0.130213   0.002726
    16  H    0.175710  -0.005346
    17  C   -0.087193   0.003949
    18  H    0.115789  -0.000174
    19  H    0.109183   0.002053
    20  H    0.126903   0.000032
    21  H    0.113290   0.000042
    22  H    0.126435  -0.000196
    23  S    0.159784   0.001756
    24  N    0.090556   0.337682
    25  C   -0.161164   0.006537
    26  C   -0.029932   0.064306
    27  C   -0.058259   0.073012
    28  C   -0.189753  -0.029446
    29  C   -0.154389  -0.031021
    30  C    0.136390   0.088579
    31  H    0.161422  -0.002826
    32  H    0.172130  -0.003475
    33  H    0.158882   0.001572
    34  H    0.145443   0.001512
    35  C   -0.154813   0.008076
    36  C   -0.044561   0.072440
    37  C   -0.042837   0.064484
    38  C   -0.149405  -0.028498
    39  C   -0.186604  -0.031092
    40  C    0.132287   0.088767
    41  H    0.161619  -0.003459
    42  H    0.172909  -0.003000
    43  H    0.146669   0.001447
    44  H    0.159161   0.001584
    45  O   -0.192111   0.032896
    46  H    0.286848  -0.000795
    47  O   -0.192384   0.032549
    48  H    0.286843  -0.000786
 Sum of Mulliken charges =   1.00000   1.00000

 Dipole moment (field-independent basis, Debye):
    X=             -7.2242    Y=             -1.4302    Z=              3.0314  Tot=              7.9639
 Quadrupole moment (field-independent basis, Debye-Ang):
   XX=            -89.5946   YY=           -126.7161   ZZ=           -167.7457
   XY=             -6.5756   XZ=             -7.3090   YZ=              4.6767

 Normal termination of Gaussian 16 at Tue Jan 19 06:48:59 2021.
