 Gaussian 16, Revision A.03,
 Gaussian 16:  EM64L-G16RevA.03 25-Dec-2016

 ----------------------------------------------------------------------
 #P LC-wHPBE/TZVP iop(3/107=0174500000, 3/108=0174500000) scf=(conver=6
 ,fermi,ndamp=35,noincfock,novaracc,vshift=500,xqc)
 ----------------------------------------------------------------------

 ----------------
 H19 C24 S2 N1 O2
 ----------------
 Symbolic Z-matrix:
 Charge =  0 Multiplicity = 1

                         Standard orientation:
 ---------------------------------------------------------------------
 Center     Atomic      Atomic             Coordinates (Angstroms)
 Number     Number       Type             X           Y           Z
 ---------------------------------------------------------------------
      1          6           0        6.544630   -1.193879   -0.127010
      2          6           0        5.283469   -0.647909   -0.131523
      3         16           0        3.665919   -1.107322   -1.042984
      4          6           0        4.996815    0.486583    0.537830
      5          6           0        1.475687    0.036886   -0.221747
      6          6           0        1.772288   -1.094442   -0.892846
      7          6           0        7.517398   -0.549399    0.618903
      8          6           0        5.951198    1.159916    1.262339
      9          1           0        2.843406    1.345523    1.332578
     10          6           0        0.186077    0.430997    0.028463
     11          6           0        0.773630   -1.912541   -1.366813
     12          6           0       -0.536910   -1.552052   -1.124661
     13          6           0       -0.845585   -0.387156   -0.425435
     14          1           0       -0.045427    1.339810    0.567415
     15          1           0        0.986976   -2.816418   -1.923251
     16          1           0       -1.342687   -2.175375   -1.484620
     17          6           0        7.223748    0.615229    1.306247
     18          1           0        6.782458   -2.097666   -0.673346
     19          1           0        3.815781   -2.439410   -0.928305
     20          1           0        8.517553   -0.958288    0.663525
     21          1           0        5.730059    2.077989    1.791552
     22          1           0        7.997253    1.105431    1.881471
     23         16           0        3.166075    0.851646    0.124057
     24          7           0       -2.182887   -0.044483   -0.184905
     25          6           0       -3.146505   -1.044921    0.067172
     26          6           0       -4.392012   -0.989098   -0.539344
     27          6           0       -2.878694   -2.090316    0.930362
     28          6           0       -5.345494   -1.946131   -0.285899
     29          6           0       -3.822608   -3.066997    1.170354
     30          6           0       -5.062274   -2.995295    0.567641
     31          1           0       -4.612943   -0.174890   -1.215121
     32          1           0       -1.913696   -2.145516    1.414069
     33          1           0       -6.317156   -1.901598   -0.755555
     34          1           0       -3.591387   -3.881585    1.845380
     35          6           0       -2.575405    1.310294   -0.123192
     36          6           0       -3.391681    1.763268    0.894977
     37          6           0       -2.164040    2.211964   -1.093710
     38          6           0       -3.796835    3.081396    0.942072
     39          6           0       -2.544098    3.531176   -1.038879
     40          6           0       -3.368807    3.972023   -0.020733
     41          1           0       -3.723839    1.071840    1.656403
     42          1           0       -1.529535    1.868488   -1.898614
     43          1           0       -4.442764    3.415230    1.744528
     44          1           0       -2.220724    4.234697   -1.791974
     45          8           0       -3.726245    5.281320   -0.019257
     46          1           0       -4.294203    5.466041    0.728132
     47          8           0       -6.032969   -3.920806    0.776143
     48          1           0       -5.721078   -4.593785    1.380389
 ---------------------------------------------------------------------

 SCF Done:  E(RLC-wHPBE) =  -1926.42710869     A.U. after   18 cycles

 The electronic state is 1-A.
 Alpha  occ. eigenvalues --  -88.22977 -88.22894 -18.88108 -18.88001 -14.11161
 Alpha  occ. eigenvalues --  -10.04262 -10.04160 -10.02291 -10.01743 -10.01677
 Alpha  occ. eigenvalues --   -9.98819  -9.98787  -9.98784  -9.98772  -9.98768
 Alpha  occ. eigenvalues --   -9.98760  -9.98737  -9.98661  -9.98630  -9.98537
 Alpha  occ. eigenvalues --   -9.98461  -9.98378  -9.98312  -9.98255  -9.98243
 Alpha  occ. eigenvalues --   -9.98214  -9.98137  -9.98044  -9.97798  -7.81444
 Alpha  occ. eigenvalues --   -7.81373  -5.83542  -5.83475  -5.83371  -5.83296
 Alpha  occ. eigenvalues --   -5.82620  -5.82546  -1.08367  -1.08263  -0.99296
 Alpha  occ. eigenvalues --   -0.91061  -0.89303  -0.89262  -0.87714  -0.84759
 Alpha  occ. eigenvalues --   -0.80094  -0.79500  -0.79261  -0.78631  -0.78505
 Alpha  occ. eigenvalues --   -0.77966  -0.76129  -0.75025  -0.72911  -0.68342
 Alpha  occ. eigenvalues --   -0.67634  -0.66188  -0.65809  -0.64735  -0.64204
 Alpha  occ. eigenvalues --   -0.62680  -0.61110  -0.60021  -0.59899  -0.58336
 Alpha  occ. eigenvalues --   -0.57945  -0.56411  -0.54684  -0.53147  -0.52272
 Alpha  occ. eigenvalues --   -0.51046  -0.50574  -0.49405  -0.49303  -0.49031
 Alpha  occ. eigenvalues --   -0.48711  -0.48130  -0.47622  -0.47480  -0.47207
 Alpha  occ. eigenvalues --   -0.46938  -0.46717  -0.46410  -0.45168  -0.45044
 Alpha  occ. eigenvalues --   -0.44397  -0.43836  -0.43256  -0.42559  -0.41739
 Alpha  occ. eigenvalues --   -0.41155  -0.40766  -0.40330  -0.39830  -0.39504
 Alpha  occ. eigenvalues --   -0.39127  -0.38899  -0.37738  -0.35025  -0.33156
 Alpha  occ. eigenvalues --   -0.32654  -0.32055  -0.31893  -0.31192  -0.29504
 Alpha  occ. eigenvalues --   -0.29282  -0.28644  -0.24602  -0.23114
 Alpha virt. eigenvalues --    0.01834   0.02764   0.03037   0.03829   0.04016
 Alpha virt. eigenvalues --    0.04114   0.04227   0.06032   0.07502   0.08091
 Alpha virt. eigenvalues --    0.08209   0.08682   0.09631   0.10707   0.11297

 Mulliken charges:
               1
     1  C   -0.077842
     2  C   -0.150067
     3  S    0.138306
     4  C   -0.144919
     5  C   -0.209177
     6  C   -0.142755
     7  C   -0.091149
     8  C   -0.080774
     9  H    0.089787
    10  C   -0.059775
    11  C   -0.083544
    12  C   -0.146556
    13  C    0.031702
    14  H    0.145737
    15  H    0.090356
    16  H    0.145879
    17  C   -0.089790
    18  H    0.096099
    19  H    0.087260
    20  H    0.102448
    21  H    0.096413
    22  H    0.102483
    23  S    0.137684
    24  N    0.003209
    25  C   -0.143788
    26  C   -0.049006
    27  C   -0.073208
    28  C   -0.204123
    29  C   -0.175430
    30  C    0.124501
    31  H    0.130398
    32  H    0.140875
    33  H    0.114728
    34  H    0.104218
    35  C   -0.139092
    36  C   -0.064299
    37  C   -0.058806
    38  C   -0.170610
    39  C   -0.200869
    40  C    0.120312
    41  H    0.132236
    42  H    0.140732
    43  H    0.104997
    44  H    0.115837
    45  O   -0.237683
    46  H    0.267550
    47  O   -0.238090
    48  H    0.267606
 Sum of Mulliken charges =  -0.00000

 Dipole moment (field-independent basis, Debye):
    X=             -0.9573    Y=             -1.3837    Z=              3.0592  Tot=              3.4914
 Quadrupole moment (field-independent basis, Debye-Ang):
   XX=           -174.8635   YY=           -165.6970   ZZ=           -177.7710
   XY=             -6.8233   XZ=             -5.3789   YZ=              5.1229

 Normal termination of Gaussian 16 at Mon Jan 18 17:18:59 2021.
