 Gaussian 16, Revision A.03,
 Gaussian 16:  EM64L-G16RevA.03 25-Dec-2016

 ----------------------------------------------------------------------
 #P LC-wHPBE/TZVP iop(3/107=0176500000, 3/108=0176500000) scf=(conver=6
 ,fermi,ndamp=35,noincfock,novaracc,vshift=500,xqc)
 ----------------------------------------------------------------------

 ----------------
 H19 C24 S2 N1 O2
 ----------------
 Symbolic Z-matrix:
 Charge =  0 Multiplicity = 1

                         Standard orientation:
 ---------------------------------------------------------------------
 Center     Atomic      Atomic             Coordinates (Angstroms)
 Number     Number       Type             X           Y           Z
 ---------------------------------------------------------------------
      1          6           0        6.544630   -1.193879   -0.127010
      2          6           0        5.283469   -0.647909   -0.131523
      3         16           0        3.665919   -1.107322   -1.042984
      4          6           0        4.996815    0.486583    0.537830
      5          6           0        1.475687    0.036886   -0.221747
      6          6           0        1.772288   -1.094442   -0.892846
      7          6           0        7.517398   -0.549399    0.618903
      8          6           0        5.951198    1.159916    1.262339
      9          1           0        2.843406    1.345523    1.332578
     10          6           0        0.186077    0.430997    0.028463
     11          6           0        0.773630   -1.912541   -1.366813
     12          6           0       -0.536910   -1.552052   -1.124661
     13          6           0       -0.845585   -0.387156   -0.425435
     14          1           0       -0.045427    1.339810    0.567415
     15          1           0        0.986976   -2.816418   -1.923251
     16          1           0       -1.342687   -2.175375   -1.484620
     17          6           0        7.223748    0.615229    1.306247
     18          1           0        6.782458   -2.097666   -0.673346
     19          1           0        3.815781   -2.439410   -0.928305
     20          1           0        8.517553   -0.958288    0.663525
     21          1           0        5.730059    2.077989    1.791552
     22          1           0        7.997253    1.105431    1.881471
     23         16           0        3.166075    0.851646    0.124057
     24          7           0       -2.182887   -0.044483   -0.184905
     25          6           0       -3.146505   -1.044921    0.067172
     26          6           0       -4.392012   -0.989098   -0.539344
     27          6           0       -2.878694   -2.090316    0.930362
     28          6           0       -5.345494   -1.946131   -0.285899
     29          6           0       -3.822608   -3.066997    1.170354
     30          6           0       -5.062274   -2.995295    0.567641
     31          1           0       -4.612943   -0.174890   -1.215121
     32          1           0       -1.913696   -2.145516    1.414069
     33          1           0       -6.317156   -1.901598   -0.755555
     34          1           0       -3.591387   -3.881585    1.845380
     35          6           0       -2.575405    1.310294   -0.123192
     36          6           0       -3.391681    1.763268    0.894977
     37          6           0       -2.164040    2.211964   -1.093710
     38          6           0       -3.796835    3.081396    0.942072
     39          6           0       -2.544098    3.531176   -1.038879
     40          6           0       -3.368807    3.972023   -0.020733
     41          1           0       -3.723839    1.071840    1.656403
     42          1           0       -1.529535    1.868488   -1.898614
     43          1           0       -4.442764    3.415230    1.744528
     44          1           0       -2.220724    4.234697   -1.791974
     45          8           0       -3.726245    5.281320   -0.019257
     46          1           0       -4.294203    5.466041    0.728132
     47          8           0       -6.032969   -3.920806    0.776143
     48          1           0       -5.721078   -4.593785    1.380389
 ---------------------------------------------------------------------

 SCF Done:  E(RLC-wHPBE) =  -1926.43023321     A.U. after   18 cycles

 The electronic state is 1-A.
 Alpha  occ. eigenvalues --  -88.23093 -88.23010 -18.88214 -18.88107 -14.11265
 Alpha  occ. eigenvalues --  -10.04377 -10.04275 -10.02406 -10.01856 -10.01791
 Alpha  occ. eigenvalues --   -9.98932  -9.98900  -9.98897  -9.98885  -9.98883
 Alpha  occ. eigenvalues --   -9.98873  -9.98850  -9.98774  -9.98744  -9.98650
 Alpha  occ. eigenvalues --   -9.98575  -9.98492  -9.98425  -9.98368  -9.98356
 Alpha  occ. eigenvalues --   -9.98327  -9.98249  -9.98157  -9.97910  -7.81560
 Alpha  occ. eigenvalues --   -7.81489  -5.83656  -5.83589  -5.83485  -5.83410
 Alpha  occ. eigenvalues --   -5.82734  -5.82660  -1.08480  -1.08376  -0.99413
 Alpha  occ. eigenvalues --   -0.91182  -0.89422  -0.89382  -0.87833  -0.84878
 Alpha  occ. eigenvalues --   -0.80211  -0.79616  -0.79377  -0.78746  -0.78620
 Alpha  occ. eigenvalues --   -0.78080  -0.76242  -0.75137  -0.73022  -0.68448
 Alpha  occ. eigenvalues --   -0.67741  -0.66294  -0.65915  -0.64841  -0.64309
 Alpha  occ. eigenvalues --   -0.62783  -0.61212  -0.60120  -0.59999  -0.58438
 Alpha  occ. eigenvalues --   -0.58043  -0.56510  -0.54782  -0.53243  -0.52368
 Alpha  occ. eigenvalues --   -0.51140  -0.50669  -0.49498  -0.49396  -0.49124
 Alpha  occ. eigenvalues --   -0.48805  -0.48224  -0.47714  -0.47572  -0.47300
 Alpha  occ. eigenvalues --   -0.47032  -0.46815  -0.46500  -0.45261  -0.45131
 Alpha  occ. eigenvalues --   -0.44489  -0.43929  -0.43347  -0.42645  -0.41820
 Alpha  occ. eigenvalues --   -0.41241  -0.40857  -0.40421  -0.39910  -0.39586
 Alpha  occ. eigenvalues --   -0.39210  -0.38981  -0.37822  -0.35107  -0.33231
 Alpha  occ. eigenvalues --   -0.32726  -0.32126  -0.31963  -0.31263  -0.29572
 Alpha  occ. eigenvalues --   -0.29349  -0.28709  -0.24660  -0.23169
 Alpha virt. eigenvalues --    0.01887   0.02818   0.03090   0.03885   0.04070
 Alpha virt. eigenvalues --    0.04171   0.04285   0.06089   0.07562   0.08149
 Alpha virt. eigenvalues --    0.08267   0.08742   0.09687   0.10762   0.11352

 Mulliken charges:
               1
     1  C   -0.077952
     2  C   -0.150342
     3  S    0.138856
     4  C   -0.145201
     5  C   -0.209475
     6  C   -0.143205
     7  C   -0.091307
     8  C   -0.080883
     9  H    0.089757
    10  C   -0.059783
    11  C   -0.083642
    12  C   -0.146667
    13  C    0.031679
    14  H    0.146000
    15  H    0.090531
    16  H    0.146125
    17  C   -0.089950
    18  H    0.096253
    19  H    0.087230
    20  H    0.102601
    21  H    0.096567
    22  H    0.102637
    23  S    0.138221
    24  N    0.002618
    25  C   -0.143868
    26  C   -0.049007
    27  C   -0.073209
    28  C   -0.204363
    29  C   -0.175685
    30  C    0.124442
    31  H    0.130626
    32  H    0.141102
    33  H    0.114907
    34  H    0.104391
    35  C   -0.139145
    36  C   -0.064379
    37  C   -0.058747
    38  C   -0.170858
    39  C   -0.201110
    40  C    0.120248
    41  H    0.132459
    42  H    0.140967
    43  H    0.105173
    44  H    0.116014
    45  O   -0.237692
    46  H    0.267555
    47  O   -0.238099
    48  H    0.267610
 Sum of Mulliken charges =  -0.00000

 Dipole moment (field-independent basis, Debye):
    X=             -0.9537    Y=             -1.3852    Z=              3.0600  Tot=              3.4917
 Quadrupole moment (field-independent basis, Debye-Ang):
   XX=           -174.8589   YY=           -165.6971   ZZ=           -177.7575
   XY=             -6.8290   XZ=             -5.3771   YZ=              5.1282

 Normal termination of Gaussian 16 at Mon Jan 18 21:53:21 2021.
