 Gaussian 16, Revision A.03,
 Gaussian 16:  EM64L-G16RevA.03 25-Dec-2016

 ----------------------------------------------------------------------
 #P LC-wHPBE/TZVP iop(3/107=0328100000, 3/108=0328100000) scf=(conver=6
 ,fermi,ndamp=35,noincfock,novaracc,vshift=500,xqc)
 ----------------------------------------------------------------------

 ----------------
 H19 C24 S2 N1 O2
 ----------------
 Symbolic Z-matrix:
 Charge =  1 Multiplicity = 2

                         Standard orientation:
 ---------------------------------------------------------------------
 Center     Atomic      Atomic             Coordinates (Angstroms)
 Number     Number       Type             X           Y           Z
 ---------------------------------------------------------------------
      1          6           0        6.544630   -1.193879   -0.127010
      2          6           0        5.283469   -0.647909   -0.131523
      3         16           0        3.665919   -1.107322   -1.042984
      4          6           0        4.996815    0.486583    0.537830
      5          6           0        1.475687    0.036886   -0.221747
      6          6           0        1.772288   -1.094442   -0.892846
      7          6           0        7.517398   -0.549399    0.618903
      8          6           0        5.951198    1.159916    1.262339
      9          1           0        2.843406    1.345523    1.332578
     10          6           0        0.186077    0.430997    0.028463
     11          6           0        0.773630   -1.912541   -1.366813
     12          6           0       -0.536910   -1.552052   -1.124661
     13          6           0       -0.845585   -0.387156   -0.425435
     14          1           0       -0.045427    1.339810    0.567415
     15          1           0        0.986976   -2.816418   -1.923251
     16          1           0       -1.342687   -2.175375   -1.484620
     17          6           0        7.223748    0.615229    1.306247
     18          1           0        6.782458   -2.097666   -0.673346
     19          1           0        3.815781   -2.439410   -0.928305
     20          1           0        8.517553   -0.958288    0.663525
     21          1           0        5.730059    2.077989    1.791552
     22          1           0        7.997253    1.105431    1.881471
     23         16           0        3.166075    0.851646    0.124057
     24          7           0       -2.182887   -0.044483   -0.184905
     25          6           0       -3.146505   -1.044921    0.067172
     26          6           0       -4.392012   -0.989098   -0.539344
     27          6           0       -2.878694   -2.090316    0.930362
     28          6           0       -5.345494   -1.946131   -0.285899
     29          6           0       -3.822608   -3.066997    1.170354
     30          6           0       -5.062274   -2.995295    0.567641
     31          1           0       -4.612943   -0.174890   -1.215121
     32          1           0       -1.913696   -2.145516    1.414069
     33          1           0       -6.317156   -1.901598   -0.755555
     34          1           0       -3.591387   -3.881585    1.845380
     35          6           0       -2.575405    1.310294   -0.123192
     36          6           0       -3.391681    1.763268    0.894977
     37          6           0       -2.164040    2.211964   -1.093710
     38          6           0       -3.796835    3.081396    0.942072
     39          6           0       -2.544098    3.531176   -1.038879
     40          6           0       -3.368807    3.972023   -0.020733
     41          1           0       -3.723839    1.071840    1.656403
     42          1           0       -1.529535    1.868488   -1.898614
     43          1           0       -4.442764    3.415230    1.744528
     44          1           0       -2.220724    4.234697   -1.791974
     45          8           0       -3.726245    5.281320   -0.019257
     46          1           0       -4.294203    5.466041    0.728132
     47          8           0       -6.032969   -3.920806    0.776143
     48          1           0       -5.721078   -4.593785    1.380389
 ---------------------------------------------------------------------

 SCF Done:  E(ULC-wHPBE) =  -1926.37711766     A.U. after   33 cycles
 SCF Done:  E(ULC-wHPBE) =  -1926.37718574     a.u. after    3 cycles

 The electronic state is 2-A.
 Alpha  occ. eigenvalues --  -88.48998 -88.48957 -19.03348 -19.03250 -14.29861
 Alpha  occ. eigenvalues --  -10.25697 -10.25634 -10.25326 -10.24443 -10.24425
 Alpha  occ. eigenvalues --  -10.22125 -10.22115 -10.21544 -10.21132 -10.21046
 Alpha  occ. eigenvalues --  -10.20960 -10.20917 -10.20661 -10.19641 -10.19148
 Alpha  occ. eigenvalues --  -10.19100 -10.15956 -10.15814 -10.15718 -10.15424
 Alpha  occ. eigenvalues --  -10.15359 -10.15297 -10.14836 -10.14558  -8.07871
 Alpha  occ. eigenvalues --   -8.07848  -6.09593  -6.09573  -6.09547  -6.09519
 Alpha  occ. eigenvalues --   -6.08696  -6.08670  -1.24091  -1.23990  -1.18769
 Alpha  occ. eigenvalues --   -1.17334  -1.13326  -1.09203  -1.06588  -1.05305
 Alpha  occ. eigenvalues --   -1.04988  -1.01841  -1.01083  -0.98845  -0.97202
 Alpha  occ. eigenvalues --   -0.95787  -0.95413  -0.94972  -0.91706  -0.87802
 Alpha  occ. eigenvalues --   -0.87101  -0.85941  -0.83755  -0.83312  -0.82101
 Alpha  occ. eigenvalues --   -0.81098  -0.79944  -0.78500  -0.77898  -0.75006
 Alpha  occ. eigenvalues --   -0.74693  -0.74067  -0.72728  -0.71644  -0.70867
 Alpha  occ. eigenvalues --   -0.70175  -0.69526  -0.68686  -0.67839  -0.67508
 Alpha  occ. eigenvalues --   -0.66810  -0.66229  -0.65200  -0.64840  -0.63546
 Alpha  occ. eigenvalues --   -0.63236  -0.63131  -0.61693  -0.61532  -0.61075
 Alpha  occ. eigenvalues --   -0.61059  -0.60994  -0.60040  -0.59519  -0.59195
 Alpha  occ. eigenvalues --   -0.58720  -0.57613  -0.56946  -0.55803  -0.54831
 Alpha  occ. eigenvalues --   -0.54158  -0.53972  -0.52506  -0.52157  -0.51918
 Alpha  occ. eigenvalues --   -0.50196  -0.48998  -0.48021  -0.46135  -0.44843
 Alpha  occ. eigenvalues --   -0.44533  -0.43778  -0.41080  -0.36042
 Alpha virt. eigenvalues --   -0.10344  -0.09120  -0.08871  -0.07981  -0.05537
 Alpha virt. eigenvalues --   -0.04238  -0.02498  -0.02003  -0.01529  -0.01160
 Alpha virt. eigenvalues --    0.00260   0.01713   0.03430   0.04111   0.04274

  Beta  occ. eigenvalues --  -88.48993 -88.48950 -19.03348 -19.03249 -14.29862
  Beta  occ. eigenvalues --  -10.25328 -10.25270 -10.24949 -10.24395 -10.24091
  Beta  occ. eigenvalues --  -10.22137 -10.22127 -10.21555 -10.21133 -10.21045
  Beta  occ. eigenvalues --  -10.20935 -10.20891 -10.20679 -10.19610 -10.19148
  Beta  occ. eigenvalues --  -10.19097 -10.15955 -10.15815 -10.15719 -10.15423
  Beta  occ. eigenvalues --  -10.15360 -10.15297 -10.14835 -10.14558  -8.07863
  Beta  occ. eigenvalues --   -8.07836  -6.09648  -6.09629  -6.09512  -6.09478
  Beta  occ. eigenvalues --   -6.08649  -6.08620  -1.24092  -1.23988  -1.18696
  Beta  occ. eigenvalues --   -1.16583  -1.12852  -1.08797  -1.06585  -1.05150
  Beta  occ. eigenvalues --   -1.04551  -1.01368  -1.00826  -0.98737  -0.96779
  Beta  occ. eigenvalues --   -0.95757  -0.95344  -0.94959  -0.91556  -0.87480
  Beta  occ. eigenvalues --   -0.86848  -0.85443  -0.83535  -0.83281  -0.82014
  Beta  occ. eigenvalues --   -0.80970  -0.79123  -0.78005  -0.77325  -0.74888
  Beta  occ. eigenvalues --   -0.74551  -0.73944  -0.72422  -0.71034  -0.70486
  Beta  occ. eigenvalues --   -0.69845  -0.68998  -0.68078  -0.67715  -0.67138
  Beta  occ. eigenvalues --   -0.66398  -0.65833  -0.64667  -0.64314  -0.63519
  Beta  occ. eigenvalues --   -0.63131  -0.62680  -0.61660  -0.61521  -0.61040
  Beta  occ. eigenvalues --   -0.61003  -0.60901  -0.59886  -0.59318  -0.58855
  Beta  occ. eigenvalues --   -0.58522  -0.57296  -0.56797  -0.55780  -0.54779
  Beta  occ. eigenvalues --   -0.54113  -0.53464  -0.52473  -0.52152  -0.51547
  Beta  occ. eigenvalues --   -0.50012  -0.48723  -0.47770  -0.44804  -0.44523
  Beta  occ. eigenvalues --   -0.43765  -0.41094  -0.36004
  Beta virt. eigenvalues --   -0.22602  -0.08837  -0.08379  -0.07925  -0.07670
  Beta virt. eigenvalues --   -0.04440  -0.03853  -0.02397  -0.01737  -0.01157
  Beta virt. eigenvalues --   -0.00730   0.00642   0.01806   0.03524   0.04230

 Mulliken charges and spin densities:
               1          2
     1  C   -0.050608  -0.017168
     2  C   -0.146415   0.191171
     3  S    0.228239   0.078899
     4  C   -0.141698   0.197455
     5  C   -0.193586   0.206545
     6  C   -0.155956   0.191803
     7  C   -0.099571   0.007049
     8  C   -0.052919  -0.018612
     9  H    0.151101   0.026760
    10  C   -0.016936  -0.029132
    11  C   -0.047004  -0.016862
    12  C   -0.139522   0.006113
    13  C   -0.010242   0.014588
    14  H    0.217111   0.009684
    15  H    0.162731   0.009738
    16  H    0.212157   0.000397
    17  C   -0.098332   0.008993
    18  H    0.168509   0.009585
    19  H    0.149145   0.029098
    20  H    0.172268   0.001028
    21  H    0.168477   0.009668
    22  H    0.172278   0.001084
    23  S    0.224873   0.080380
    24  N   -0.047345  -0.001549
    25  C   -0.157486   0.000351
    26  C   -0.059868   0.000609
    27  C   -0.092166   0.001956
    28  C   -0.209992  -0.000222
    29  C   -0.182944  -0.000957
    30  C    0.113961   0.001321
    31  H    0.169848  -0.000054
    32  H    0.158344  -0.000072
    33  H    0.159296   0.000014
    34  H    0.140675   0.000049
    35  C   -0.155494   0.001078
    36  C   -0.079128  -0.000919
    37  C   -0.082389  -0.000295
    38  C   -0.177884   0.000337
    39  C   -0.210476   0.000387
    40  C    0.110113  -0.000572
    41  H    0.171995   0.000056
    42  H    0.163791   0.000033
    43  H    0.146595  -0.000011
    44  H    0.155659  -0.000017
    45  O   -0.233421  -0.000077
    46  H    0.278496   0.000002
    47  O   -0.230880   0.000294
    48  H    0.276601  -0.000007
 Sum of Mulliken charges =   1.00000   1.00000

 Dipole moment (field-independent basis, Debye):
    X=             11.8982    Y=             -2.5945    Z=              3.0842  Tot=             12.5623
 Quadrupole moment (field-independent basis, Debye-Ang):
   XX=            -63.4710   YY=           -144.2001   ZZ=           -167.3222
   XY=             -9.6272   XZ=             -1.1381   YZ=             10.4481

 Normal termination of Gaussian 16 at Mon Jan 18 07:51:42 2021.
