 Gaussian 16, Revision A.03,
 Gaussian 16:  EM64L-G16RevA.03 25-Dec-2016

 ----------------------------------------------------------------------
 #P LC-wHPBE/TZVP iop(3/107=0177500000, 3/108=0177500000) scf=(conver=6
 ,fermi,ndamp=35,noincfock,novaracc,vshift=500,xqc)
 ----------------------------------------------------------------------

 ----------------
 H19 C24 S2 N1 O2
 ----------------
 Symbolic Z-matrix:
 Charge =  0 Multiplicity = 1

                         Standard orientation:
 ---------------------------------------------------------------------
 Center     Atomic      Atomic             Coordinates (Angstroms)
 Number     Number       Type             X           Y           Z
 ---------------------------------------------------------------------
      1          6           0        6.544630   -1.193879   -0.127010
      2          6           0        5.283469   -0.647909   -0.131523
      3         16           0        3.665919   -1.107322   -1.042984
      4          6           0        4.996815    0.486583    0.537830
      5          6           0        1.475687    0.036886   -0.221747
      6          6           0        1.772288   -1.094442   -0.892846
      7          6           0        7.517398   -0.549399    0.618903
      8          6           0        5.951198    1.159916    1.262339
      9          1           0        2.843406    1.345523    1.332578
     10          6           0        0.186077    0.430997    0.028463
     11          6           0        0.773630   -1.912541   -1.366813
     12          6           0       -0.536910   -1.552052   -1.124661
     13          6           0       -0.845585   -0.387156   -0.425435
     14          1           0       -0.045427    1.339810    0.567415
     15          1           0        0.986976   -2.816418   -1.923251
     16          1           0       -1.342687   -2.175375   -1.484620
     17          6           0        7.223748    0.615229    1.306247
     18          1           0        6.782458   -2.097666   -0.673346
     19          1           0        3.815781   -2.439410   -0.928305
     20          1           0        8.517553   -0.958288    0.663525
     21          1           0        5.730059    2.077989    1.791552
     22          1           0        7.997253    1.105431    1.881471
     23         16           0        3.166075    0.851646    0.124057
     24          7           0       -2.182887   -0.044483   -0.184905
     25          6           0       -3.146505   -1.044921    0.067172
     26          6           0       -4.392012   -0.989098   -0.539344
     27          6           0       -2.878694   -2.090316    0.930362
     28          6           0       -5.345494   -1.946131   -0.285899
     29          6           0       -3.822608   -3.066997    1.170354
     30          6           0       -5.062274   -2.995295    0.567641
     31          1           0       -4.612943   -0.174890   -1.215121
     32          1           0       -1.913696   -2.145516    1.414069
     33          1           0       -6.317156   -1.901598   -0.755555
     34          1           0       -3.591387   -3.881585    1.845380
     35          6           0       -2.575405    1.310294   -0.123192
     36          6           0       -3.391681    1.763268    0.894977
     37          6           0       -2.164040    2.211964   -1.093710
     38          6           0       -3.796835    3.081396    0.942072
     39          6           0       -2.544098    3.531176   -1.038879
     40          6           0       -3.368807    3.972023   -0.020733
     41          1           0       -3.723839    1.071840    1.656403
     42          1           0       -1.529535    1.868488   -1.898614
     43          1           0       -4.442764    3.415230    1.744528
     44          1           0       -2.220724    4.234697   -1.791974
     45          8           0       -3.726245    5.281320   -0.019257
     46          1           0       -4.294203    5.466041    0.728132
     47          8           0       -6.032969   -3.920806    0.776143
     48          1           0       -5.721078   -4.593785    1.380389
 ---------------------------------------------------------------------

 SCF Done:  E(RLC-wHPBE) =  -1926.43179401     A.U. after   18 cycles

 The electronic state is 1-A.
 Alpha  occ. eigenvalues --  -88.23150 -88.23068 -18.88267 -18.88160 -14.11318
 Alpha  occ. eigenvalues --  -10.04435 -10.04332 -10.02464 -10.01913 -10.01847
 Alpha  occ. eigenvalues --   -9.98988  -9.98956  -9.98954  -9.98941  -9.98940
 Alpha  occ. eigenvalues --   -9.98930  -9.98906  -9.98831  -9.98801  -9.98707
 Alpha  occ. eigenvalues --   -9.98631  -9.98548  -9.98482  -9.98424  -9.98412
 Alpha  occ. eigenvalues --   -9.98383  -9.98305  -9.98213  -9.97967  -7.81618
 Alpha  occ. eigenvalues --   -7.81547  -5.83713  -5.83646  -5.83542  -5.83467
 Alpha  occ. eigenvalues --   -5.82790  -5.82717  -1.08536  -1.08432  -0.99471
 Alpha  occ. eigenvalues --   -0.91242  -0.89482  -0.89441  -0.87892  -0.84937
 Alpha  occ. eigenvalues --   -0.80269  -0.79673  -0.79434  -0.78804  -0.78677
 Alpha  occ. eigenvalues --   -0.78138  -0.76298  -0.75194  -0.73077  -0.68501
 Alpha  occ. eigenvalues --   -0.67794  -0.66347  -0.65967  -0.64894  -0.64361
 Alpha  occ. eigenvalues --   -0.62835  -0.61262  -0.60170  -0.60049  -0.58488
 Alpha  occ. eigenvalues --   -0.58092  -0.56560  -0.54830  -0.53291  -0.52416
 Alpha  occ. eigenvalues --   -0.51187  -0.50715  -0.49545  -0.49443  -0.49171
 Alpha  occ. eigenvalues --   -0.48852  -0.48270  -0.47760  -0.47617  -0.47346
 Alpha  occ. eigenvalues --   -0.47078  -0.46864  -0.46546  -0.45307  -0.45175
 Alpha  occ. eigenvalues --   -0.44535  -0.43976  -0.43392  -0.42688  -0.41861
 Alpha  occ. eigenvalues --   -0.41284  -0.40902  -0.40466  -0.39950  -0.39627
 Alpha  occ. eigenvalues --   -0.39251  -0.39022  -0.37863  -0.35147  -0.33268
 Alpha  occ. eigenvalues --   -0.32762  -0.32161  -0.31998  -0.31298  -0.29605
 Alpha  occ. eigenvalues --   -0.29383  -0.28741  -0.24688  -0.23197
 Alpha virt. eigenvalues --    0.01913   0.02845   0.03117   0.03912   0.04097
 Alpha virt. eigenvalues --    0.04199   0.04314   0.06118   0.07592   0.08177
 Alpha virt. eigenvalues --    0.08295   0.08772   0.09715   0.10789   0.11379

 Mulliken charges:
               1
     1  C   -0.078006
     2  C   -0.150483
     3  S    0.139133
     4  C   -0.145346
     5  C   -0.209628
     6  C   -0.143435
     7  C   -0.091388
     8  C   -0.080937
     9  H    0.089743
    10  C   -0.059784
    11  C   -0.083689
    12  C   -0.146725
    13  C    0.031664
    14  H    0.146132
    15  H    0.090621
    16  H    0.146249
    17  C   -0.090032
    18  H    0.096332
    19  H    0.087216
    20  H    0.102680
    21  H    0.096646
    22  H    0.102715
    23  S    0.138491
    24  N    0.002320
    25  C   -0.143910
    26  C   -0.049009
    27  C   -0.073211
    28  C   -0.204482
    29  C   -0.175811
    30  C    0.124410
    31  H    0.130743
    32  H    0.141218
    33  H    0.114999
    34  H    0.104480
    35  C   -0.139174
    36  C   -0.064421
    37  C   -0.058720
    38  C   -0.170981
    39  C   -0.201229
    40  C    0.120214
    41  H    0.132573
    42  H    0.141086
    43  H    0.105263
    44  H    0.116104
    45  O   -0.237698
    46  H    0.267557
    47  O   -0.238104
    48  H    0.267613
 Sum of Mulliken charges =  -0.00000

 Dipole moment (field-independent basis, Debye):
    X=             -0.9519    Y=             -1.3859    Z=              3.0604  Tot=              3.4919
 Quadrupole moment (field-independent basis, Debye-Ang):
   XX=           -174.8567   YY=           -165.6971   ZZ=           -177.7507
   XY=             -6.8319   XZ=             -5.3762   YZ=              5.1308

 Normal termination of Gaussian 16 at Tue Jan 19 00:49:54 2021.
