 Gaussian 16, Revision A.03,
 Gaussian 16:  EM64L-G16RevA.03 25-Dec-2016

 ----------------------------------------------------------------------
 #P LC-wHPBE/TZVP iop(3/107=0328100000, 3/108=0328100000) scf=(conver=6
 ,fermi,ndamp=35,noincfock,novaracc,vshift=500,xqc)
 ----------------------------------------------------------------------

 ----------------
 H19 C24 S2 N1 O2
 ----------------
 Symbolic Z-matrix:
 Charge =  0 Multiplicity = 1

                         Standard orientation:
 ---------------------------------------------------------------------
 Center     Atomic      Atomic             Coordinates (Angstroms)
 Number     Number       Type             X           Y           Z
 ---------------------------------------------------------------------
      1          6           0        6.544630   -1.193879   -0.127010
      2          6           0        5.283469   -0.647909   -0.131523
      3         16           0        3.665919   -1.107322   -1.042984
      4          6           0        4.996815    0.486583    0.537830
      5          6           0        1.475687    0.036886   -0.221747
      6          6           0        1.772288   -1.094442   -0.892846
      7          6           0        7.517398   -0.549399    0.618903
      8          6           0        5.951198    1.159916    1.262339
      9          1           0        2.843406    1.345523    1.332578
     10          6           0        0.186077    0.430997    0.028463
     11          6           0        0.773630   -1.912541   -1.366813
     12          6           0       -0.536910   -1.552052   -1.124661
     13          6           0       -0.845585   -0.387156   -0.425435
     14          1           0       -0.045427    1.339810    0.567415
     15          1           0        0.986976   -2.816418   -1.923251
     16          1           0       -1.342687   -2.175375   -1.484620
     17          6           0        7.223748    0.615229    1.306247
     18          1           0        6.782458   -2.097666   -0.673346
     19          1           0        3.815781   -2.439410   -0.928305
     20          1           0        8.517553   -0.958288    0.663525
     21          1           0        5.730059    2.077989    1.791552
     22          1           0        7.997253    1.105431    1.881471
     23         16           0        3.166075    0.851646    0.124057
     24          7           0       -2.182887   -0.044483   -0.184905
     25          6           0       -3.146505   -1.044921    0.067172
     26          6           0       -4.392012   -0.989098   -0.539344
     27          6           0       -2.878694   -2.090316    0.930362
     28          6           0       -5.345494   -1.946131   -0.285899
     29          6           0       -3.822608   -3.066997    1.170354
     30          6           0       -5.062274   -2.995295    0.567641
     31          1           0       -4.612943   -0.174890   -1.215121
     32          1           0       -1.913696   -2.145516    1.414069
     33          1           0       -6.317156   -1.901598   -0.755555
     34          1           0       -3.591387   -3.881585    1.845380
     35          6           0       -2.575405    1.310294   -0.123192
     36          6           0       -3.391681    1.763268    0.894977
     37          6           0       -2.164040    2.211964   -1.093710
     38          6           0       -3.796835    3.081396    0.942072
     39          6           0       -2.544098    3.531176   -1.038879
     40          6           0       -3.368807    3.972023   -0.020733
     41          1           0       -3.723839    1.071840    1.656403
     42          1           0       -1.529535    1.868488   -1.898614
     43          1           0       -4.442764    3.415230    1.744528
     44          1           0       -2.220724    4.234697   -1.791974
     45          8           0       -3.726245    5.281320   -0.019257
     46          1           0       -4.294203    5.466041    0.728132
     47          8           0       -6.032969   -3.920806    0.776143
     48          1           0       -5.721078   -4.593785    1.380389
 ---------------------------------------------------------------------

 SCF Done:  E(RLC-wHPBE) =  -1926.62874424     A.U. after   17 cycles

 The electronic state is 1-A.
 Alpha  occ. eigenvalues --  -88.31939 -88.31849 -18.96092 -18.95979 -14.19233
 Alpha  occ. eigenvalues --  -10.13132 -10.13023 -10.11167 -10.10515 -10.10446
 Alpha  occ. eigenvalues --  -10.07549 -10.07503 -10.07487 -10.07471 -10.07456
 Alpha  occ. eigenvalues --  -10.07441 -10.07392 -10.07380 -10.07340 -10.07279
 Alpha  occ. eigenvalues --  -10.07202 -10.07114 -10.06976 -10.06924 -10.06920
 Alpha  occ. eigenvalues --  -10.06876 -10.06784 -10.06688 -10.06459  -7.90512
 Alpha  occ. eigenvalues --   -7.90434  -5.92346  -5.92273  -5.92149  -5.92065
 Alpha  occ. eigenvalues --   -5.91358  -5.91277  -1.16812  -1.16702  -1.08188
 Alpha  occ. eigenvalues --   -1.00225  -0.98296  -0.98241  -0.96536  -0.93527
 Alpha  occ. eigenvalues --   -0.88597  -0.87878  -0.87614  -0.86963  -0.86818
 Alpha  occ. eigenvalues --   -0.86247  -0.84175  -0.82997  -0.80676  -0.75604
 Alpha  occ. eigenvalues --   -0.74962  -0.73499  -0.73016  -0.71941  -0.71378
 Alpha  occ. eigenvalues --   -0.69707  -0.67920  -0.66610  -0.66497  -0.65031
 Alpha  occ. eigenvalues --   -0.64296  -0.62871  -0.61061  -0.59447  -0.58546
 Alpha  occ. eigenvalues --   -0.57110  -0.56680  -0.55441  -0.55318  -0.55039
 Alpha  occ. eigenvalues --   -0.54773  -0.54139  -0.53638  -0.53466  -0.53217
 Alpha  occ. eigenvalues --   -0.53062  -0.52726  -0.52163  -0.51063  -0.50646
 Alpha  occ. eigenvalues --   -0.50234  -0.49657  -0.48962  -0.48049  -0.46881
 Alpha  occ. eigenvalues --   -0.46467  -0.46387  -0.45937  -0.44864  -0.44614
 Alpha  occ. eigenvalues --   -0.44287  -0.44026  -0.42791  -0.39900  -0.37440
 Alpha  occ. eigenvalues --   -0.36597  -0.35976  -0.35722  -0.35069  -0.33348
 Alpha  occ. eigenvalues --   -0.33057  -0.32261  -0.27670  -0.26253
 Alpha virt. eigenvalues --    0.04266   0.05321   0.05613   0.06498   0.06664
 Alpha virt. eigenvalues --    0.06913   0.06990   0.08871   0.10483   0.10930
 Alpha virt. eigenvalues --    0.11052   0.11617   0.12425   0.13333   0.13876

 Mulliken charges:
               1
     1  C   -0.078818
     2  C   -0.187917
     3  S    0.178793
     4  C   -0.182951
     5  C   -0.244192
     6  C   -0.197433
     7  C   -0.114340
     8  C   -0.081536
     9  H    0.089473
    10  C   -0.047611
    11  C   -0.072657
    12  C   -0.165805
    13  C    0.014694
    14  H    0.175073
    15  H    0.115029
    16  H    0.173619
    17  C   -0.113119
    18  H    0.118336
    19  H    0.086718
    20  H    0.123296
    21  H    0.118707
    22  H    0.123326
    23  S    0.177338
    24  N   -0.046841
    25  C   -0.157548
    26  C   -0.064082
    27  C   -0.087821
    28  C   -0.214335
    29  C   -0.188293
    30  C    0.113145
    31  H    0.157657
    32  H    0.167704
    33  H    0.138856
    34  H    0.126197
    35  C   -0.151847
    36  C   -0.082818
    37  C   -0.070484
    38  C   -0.183466
    39  C   -0.211898
    40  C    0.109262
    41  H    0.159143
    42  H    0.168245
    43  H    0.127197
    44  H    0.139626
    45  O   -0.247661
    46  H    0.270001
    47  O   -0.248001
    48  H    0.270035
 Sum of Mulliken charges =  -0.00000

 Dipole moment (field-independent basis, Debye):
    X=             -0.7102    Y=             -1.4948    Z=              3.1280  Tot=              3.5388
 Quadrupole moment (field-independent basis, Debye-Ang):
   XX=           -174.5992   YY=           -165.7060   ZZ=           -176.7796
   XY=             -7.2993   XZ=             -5.2854   YZ=              5.5467

 Normal termination of Gaussian 16 at Mon Jan 18 06:47:27 2021.
