 Gaussian 16, Revision A.03,
 Gaussian 16:  EM64L-G16RevA.03 25-Dec-2016

 ----------------------------------------------------------------------
 #P LC-wHPBE/TZVP iop(3/107=0181300000, 3/108=0181300000) scf=(conver=6
 ,fermi,ndamp=35,noincfock,novaracc,vshift=500,xqc)
 ----------------------------------------------------------------------

 ----------------
 H19 C24 S2 N1 O2
 ----------------
 Symbolic Z-matrix:
 Charge =  0 Multiplicity = 1

                         Standard orientation:
 ---------------------------------------------------------------------
 Center     Atomic      Atomic             Coordinates (Angstroms)
 Number     Number       Type             X           Y           Z
 ---------------------------------------------------------------------
      1          6           0        6.544630   -1.193879   -0.127010
      2          6           0        5.283469   -0.647909   -0.131523
      3         16           0        3.665919   -1.107322   -1.042984
      4          6           0        4.996815    0.486583    0.537830
      5          6           0        1.475687    0.036886   -0.221747
      6          6           0        1.772288   -1.094442   -0.892846
      7          6           0        7.517398   -0.549399    0.618903
      8          6           0        5.951198    1.159916    1.262339
      9          1           0        2.843406    1.345523    1.332578
     10          6           0        0.186077    0.430997    0.028463
     11          6           0        0.773630   -1.912541   -1.366813
     12          6           0       -0.536910   -1.552052   -1.124661
     13          6           0       -0.845585   -0.387156   -0.425435
     14          1           0       -0.045427    1.339810    0.567415
     15          1           0        0.986976   -2.816418   -1.923251
     16          1           0       -1.342687   -2.175375   -1.484620
     17          6           0        7.223748    0.615229    1.306247
     18          1           0        6.782458   -2.097666   -0.673346
     19          1           0        3.815781   -2.439410   -0.928305
     20          1           0        8.517553   -0.958288    0.663525
     21          1           0        5.730059    2.077989    1.791552
     22          1           0        7.997253    1.105431    1.881471
     23         16           0        3.166075    0.851646    0.124057
     24          7           0       -2.182887   -0.044483   -0.184905
     25          6           0       -3.146505   -1.044921    0.067172
     26          6           0       -4.392012   -0.989098   -0.539344
     27          6           0       -2.878694   -2.090316    0.930362
     28          6           0       -5.345494   -1.946131   -0.285899
     29          6           0       -3.822608   -3.066997    1.170354
     30          6           0       -5.062274   -2.995295    0.567641
     31          1           0       -4.612943   -0.174890   -1.215121
     32          1           0       -1.913696   -2.145516    1.414069
     33          1           0       -6.317156   -1.901598   -0.755555
     34          1           0       -3.591387   -3.881585    1.845380
     35          6           0       -2.575405    1.310294   -0.123192
     36          6           0       -3.391681    1.763268    0.894977
     37          6           0       -2.164040    2.211964   -1.093710
     38          6           0       -3.796835    3.081396    0.942072
     39          6           0       -2.544098    3.531176   -1.038879
     40          6           0       -3.368807    3.972023   -0.020733
     41          1           0       -3.723839    1.071840    1.656403
     42          1           0       -1.529535    1.868488   -1.898614
     43          1           0       -4.442764    3.415230    1.744528
     44          1           0       -2.220724    4.234697   -1.791974
     45          8           0       -3.726245    5.281320   -0.019257
     46          1           0       -4.294203    5.466041    0.728132
     47          8           0       -6.032969   -3.920806    0.776143
     48          1           0       -5.721078   -4.593785    1.380389
 ---------------------------------------------------------------------

 SCF Done:  E(RLC-wHPBE) =  -1926.43771470     A.U. after   18 cycles

 The electronic state is 1-A.
 Alpha  occ. eigenvalues --  -88.23370 -88.23288 -18.88469 -18.88361 -14.11517
 Alpha  occ. eigenvalues --  -10.04653 -10.04550 -10.02683 -10.02130 -10.02064
 Alpha  occ. eigenvalues --   -9.99202  -9.99171  -9.99169  -9.99157  -9.99156
 Alpha  occ. eigenvalues --   -9.99145  -9.99120  -9.99045  -9.99017  -9.98923
 Alpha  occ. eigenvalues --   -9.98847  -9.98764  -9.98696  -9.98639  -9.98627
 Alpha  occ. eigenvalues --   -9.98597  -9.98519  -9.98426  -9.98181  -7.81840
 Alpha  occ. eigenvalues --   -7.81768  -5.83931  -5.83864  -5.83759  -5.83684
 Alpha  occ. eigenvalues --   -5.83007  -5.82933  -1.08750  -1.08646  -0.99693
 Alpha  occ. eigenvalues --   -0.91472  -0.89709  -0.89668  -0.88117  -0.85163
 Alpha  occ. eigenvalues --   -0.80491  -0.79892  -0.79653  -0.79022  -0.78895
 Alpha  occ. eigenvalues --   -0.78355  -0.76513  -0.75407  -0.73286  -0.68700
 Alpha  occ. eigenvalues --   -0.67994  -0.66548  -0.66167  -0.65093  -0.64560
 Alpha  occ. eigenvalues --   -0.63031  -0.61454  -0.60358  -0.60238  -0.58681
 Alpha  occ. eigenvalues --   -0.58275  -0.56747  -0.55014  -0.53473  -0.52597
 Alpha  occ. eigenvalues --   -0.51364  -0.50893  -0.49721  -0.49618  -0.49347
 Alpha  occ. eigenvalues --   -0.49029  -0.48446  -0.47933  -0.47791  -0.47520
 Alpha  occ. eigenvalues --   -0.47255  -0.47047  -0.46717  -0.45481  -0.45340
 Alpha  occ. eigenvalues --   -0.44708  -0.44152  -0.43562  -0.42849  -0.42013
 Alpha  occ. eigenvalues --   -0.41446  -0.41072  -0.40637  -0.40100  -0.39782
 Alpha  occ. eigenvalues --   -0.39406  -0.39176  -0.38020  -0.35300  -0.33408
 Alpha  occ. eigenvalues --   -0.32895  -0.32294  -0.32129  -0.31429  -0.29733
 Alpha  occ. eigenvalues --   -0.29509  -0.28862  -0.24796  -0.23302
 Alpha virt. eigenvalues --    0.02011   0.02945   0.03216   0.04015   0.04198
 Alpha virt. eigenvalues --    0.04305   0.04421   0.06224   0.07703   0.08284
 Alpha virt. eigenvalues --    0.08402   0.08883   0.09819   0.10890   0.11480

 Mulliken charges:
               1
     1  C   -0.078205
     2  C   -0.151041
     3  S    0.140196
     4  C   -0.145917
     5  C   -0.210225
     6  C   -0.144336
     7  C   -0.091709
     8  C   -0.081135
     9  H    0.089688
    10  C   -0.059777
    11  C   -0.083850
    12  C   -0.146952
    13  C    0.031596
    14  H    0.146649
    15  H    0.090975
    16  H    0.146733
    17  C   -0.090356
    18  H    0.096643
    19  H    0.087160
    20  H    0.102989
    21  H    0.096958
    22  H    0.103025
    23  S    0.139529
    24  N    0.001178
    25  C   -0.144077
    26  C   -0.049033
    27  C   -0.073233
    28  C   -0.204929
    29  C   -0.176289
    30  C    0.124278
    31  H    0.131197
    32  H    0.141669
    33  H    0.115359
    34  H    0.104827
    35  C   -0.139291
    36  C   -0.064593
    37  C   -0.058629
    38  C   -0.171447
    39  C   -0.201677
    40  C    0.120074
    41  H    0.133016
    42  H    0.141552
    43  H    0.105614
    44  H    0.116460
    45  O   -0.237725
    46  H    0.267568
    47  O   -0.238130
    48  H    0.267623
 Sum of Mulliken charges =  -0.00000

 Dipole moment (field-independent basis, Debye):
    X=             -0.9451    Y=             -1.3887    Z=              3.0620  Tot=              3.4925
 Quadrupole moment (field-independent basis, Debye-Ang):
   XX=           -174.8483   YY=           -165.6973   ZZ=           -177.7248
   XY=             -6.8428   XZ=             -5.3727   YZ=              5.1408

 Normal termination of Gaussian 16 at Mon Jan 18 11:36:32 2021.
