 Gaussian 16, Revision A.03,
 Gaussian 16:  EM64L-G16RevA.03 25-Dec-2016

 ------------------------------------------------------------
 #P LC-wHPBE/TZVP iop(3/107=0339000000, 3/108=0339000000) opt
 ------------------------------------------------------------

 ---------
 H18 C9 N3
 ---------
 Symbolic Z-matrix:
 Charge =  1 Multiplicity = 1

 SCF Done:  E(RLC-wHPBE) =  -517.366753450     A.U. after   17 cycles
 SCF Done:  E(RLC-wHPBE) =  -517.417556425     A.U. after   15 cycles
 SCF Done:  E(RLC-wHPBE) =  -517.451087864     A.U. after   17 cycles
 SCF Done:  E(RLC-wHPBE) =  -517.472049897     A.U. after   15 cycles
 SCF Done:  E(RLC-wHPBE) =  -517.495658329     A.U. after   16 cycles
 SCF Done:  E(RLC-wHPBE) =  -517.508748228     A.U. after   16 cycles
 SCF Done:  E(RLC-wHPBE) =  -517.516857571     A.U. after   14 cycles
 SCF Done:  E(RLC-wHPBE) =  -517.524987316     A.U. after   14 cycles
 SCF Done:  E(RLC-wHPBE) =  -517.532267957     A.U. after   13 cycles
 SCF Done:  E(RLC-wHPBE) =  -517.540846269     A.U. after   14 cycles
 SCF Done:  E(RLC-wHPBE) =  -517.553670011     A.U. after   11 cycles
 SCF Done:  E(RLC-wHPBE) =  -517.553670441     A.U. after    9 cycles
 SCF Done:  E(RLC-wHPBE) =  -517.553671591     A.U. after    8 cycles
 SCF Done:  E(RLC-wHPBE) =  -517.553672310     A.U. after    8 cycles
 SCF Done:  E(RLC-wHPBE) =  -517.553672726     A.U. after    9 cycles
 SCF Done:  E(RLC-wHPBE) =  -517.553674128     A.U. after   11 cycles
 SCF Done:  E(RLC-wHPBE) =  -517.553673781     A.U. after    8 cycles
 SCF Done:  E(RLC-wHPBE) =  -517.553674409     A.U. after    8 cycles
 SCF Done:  E(RLC-wHPBE) =  -517.553674722     A.U. after    7 cycles
 SCF Done:  E(RLC-wHPBE) =  -517.553673920     A.U. after    7 cycles
 Optimization completed.
    -- Stationary point found.

                         Standard orientation:
 ---------------------------------------------------------------------
 Center     Atomic      Atomic             Coordinates (Angstroms)
 Number     Number       Type             X           Y           Z
 ---------------------------------------------------------------------
      1          6           0       -0.610862    0.510880    0.000115
      2          6           0       -0.136805   -0.784324    0.000118
      3          7           0       -1.625284    1.358829    0.000149
      4          7           0       -0.364248   -2.086765    0.000256
      5          6           0       -1.430247    2.779535   -0.245115
      6          1           0       -1.514482    3.356239    0.681778
      7          1           0       -0.453085    2.953583   -0.694570
      8          1           0       -2.189123    3.132424   -0.948067
      9          6           0       -2.988895    0.914734    0.244915
     10          1           0       -3.471630    1.599951    0.946347
     11          1           0       -3.570653    0.893667   -0.682419
     12          1           0       -2.986873   -0.077069    0.695991
     13          6           0        0.701968   -3.045906    0.244739
     14          1           0        1.009895   -3.540090   -0.682520
     15          1           0        1.560610   -2.548225    0.694397
     16          1           0        0.350361   -3.805818    0.947208
     17          6           0       -1.692259   -2.627901   -0.244928
     18          1           0       -1.618712   -3.461412   -0.948079
     19          1           0       -2.149477   -2.989362    0.681963
     20          1           0       -2.331523   -1.868430   -0.694010
     21          6           0        0.747831    0.273810    0.000062
     22          7           0        1.989493    0.728067   -0.000089
     23          6           0        2.287295    2.130832    0.245062
     24          1           0        2.563599    2.644356   -0.681638
     25          1           0        1.426241    2.626112    0.692731
     26          1           0        3.119706    2.205914    0.949371
     27          6           0        3.122069   -0.151615   -0.245030
     28          1           0        3.807758    0.329200   -0.947323
     29          1           0        3.663007   -0.367678    0.682084
     30          1           0        2.784087   -1.084552   -0.695089
 ---------------------------------------------------------------------

 The electronic state is 1-A.
 Alpha  occ. eigenvalues --  -14.35998 -14.35997 -14.35996 -10.30039 -10.29968
 Alpha  occ. eigenvalues --  -10.29968 -10.23790 -10.23789 -10.23789 -10.23786
 Alpha  occ. eigenvalues --  -10.23786 -10.23785  -1.26051  -1.21883  -1.21882
 Alpha  occ. eigenvalues --   -1.16012  -0.98894  -0.98893  -0.97997  -0.96526
 Alpha  occ. eigenvalues --   -0.96525  -0.94480  -0.80173  -0.80172  -0.79269
 Alpha  occ. eigenvalues --   -0.75518  -0.74630  -0.74630  -0.72164  -0.72163
 Alpha  occ. eigenvalues --   -0.71695  -0.66050  -0.66049  -0.65835  -0.65814
 Alpha  occ. eigenvalues --   -0.64649  -0.64647  -0.64400  -0.63085  -0.63084
 Alpha  occ. eigenvalues --   -0.61571  -0.61390  -0.61389  -0.52880  -0.52880
 Alpha  occ. eigenvalues --   -0.42346
 Alpha virt. eigenvalues --   -0.02884  -0.02700  -0.02697   0.00576   0.00578
 Alpha virt. eigenvalues --    0.02161   0.03527   0.03528   0.03783   0.06287
 Alpha virt. eigenvalues --    0.06288   0.06423   0.06752   0.06785   0.06785

 Mulliken charges:
               1
     1  C   -0.097612
     2  C   -0.097873
     3  N   -0.018175
     4  N   -0.018151
     5  C   -0.267947
     6  H    0.176361
     7  H    0.148906
     8  H    0.167286
     9  C   -0.268186
    10  H    0.167288
    11  H    0.176375
    12  H    0.149063
    13  C   -0.268007
    14  H    0.176345
    15  H    0.148987
    16  H    0.167254
    17  C   -0.267923
    18  H    0.167234
    19  H    0.176341
    20  H    0.148966
    21  C   -0.097674
    22  N   -0.018152
    23  C   -0.267684
    24  H    0.176311
    25  H    0.148837
    26  H    0.167225
    27  C   -0.267958
    28  H    0.167220
    29  H    0.176340
    30  H    0.149002
 Sum of Mulliken charges =   1.00000

 Dipole moment (field-independent basis, Debye):
    X=             -0.0004    Y=              0.0002    Z=             -0.0007  Tot=              0.0008
 Quadrupole moment (field-independent basis, Debye-Ang):
   XX=            -44.0727   YY=            -44.0765   ZZ=            -71.7054
   XY=             -0.0015   XZ=             -0.0001   YZ=              0.0003

 Normal termination of Gaussian 16 at Mon Jan 25 20:54:09 2021.
