 Gaussian 16, Revision A.03,
 Gaussian 16:  EM64L-G16RevA.03 25-Dec-2016

 ------------------------------------------------------------
 #P LC-wHPBE/TZVP iop(3/107=0448700000, 3/108=0448700000) opt
 ------------------------------------------------------------

 ----------
 H32 C26 N4
 ----------
 Symbolic Z-matrix:
 Charge =  2 Multiplicity = 1

 SCF Done:  E(RLC-wHPBE) =  -1227.55270412     A.U. after   16 cycles
 SCF Done:  E(RLC-wHPBE) =  -1227.65625095     A.U. after   15 cycles
 SCF Done:  E(RLC-wHPBE) =  -1227.77073431     A.U. after   15 cycles
 SCF Done:  E(RLC-wHPBE) =  -1227.80521175     A.U. after   15 cycles
 SCF Done:  E(RLC-wHPBE) =  -1227.84316455     A.U. after   16 cycles
 SCF Done:  E(RLC-wHPBE) =  -1227.87381663     A.U. after   15 cycles
 SCF Done:  E(RLC-wHPBE) =  -1227.90750756     A.U. after   17 cycles
 SCF Done:  E(RLC-wHPBE) =  -1227.90392150     A.U. after   16 cycles
 SCF Done:  E(RLC-wHPBE) =  -1227.93585669     A.U. after   15 cycles
 SCF Done:  E(RLC-wHPBE) =  -1227.96358026     A.U. after   17 cycles
 SCF Done:  E(RLC-wHPBE) =  -1227.98727176     A.U. after   11 cycles
 SCF Done:  E(RLC-wHPBE) =  -1227.98727294     A.U. after   11 cycles
 SCF Done:  E(RLC-wHPBE) =  -1227.98727338     A.U. after    9 cycles
 SCF Done:  E(RLC-wHPBE) =  -1227.98727361     A.U. after    9 cycles
 SCF Done:  E(RLC-wHPBE) =  -1227.98727375     A.U. after    8 cycles
 SCF Done:  E(RLC-wHPBE) =  -1227.98727388     A.U. after    8 cycles
 SCF Done:  E(RLC-wHPBE) =  -1227.98727397     A.U. after    8 cycles
 SCF Done:  E(RLC-wHPBE) =  -1227.98727403     A.U. after    7 cycles
 SCF Done:  E(RLC-wHPBE) =  -1227.98727407     A.U. after    7 cycles
 SCF Done:  E(RLC-wHPBE) =  -1227.98727410     A.U. after    7 cycles
 Optimization completed.
    -- Stationary point found.

                         Standard orientation:
 ---------------------------------------------------------------------
 Center     Atomic      Atomic             Coordinates (Angstroms)
 Number     Number       Type             X           Y           Z
 ---------------------------------------------------------------------
      1          6           0       -2.823961    0.444264    1.111805
      2          6           0       -3.524911    0.000100    0.000001
      3          6           0       -1.447297    0.438089    1.110761
      4          6           0       -2.823968   -0.444049   -1.111840
      5          6           0       -0.740218    0.000107   -0.000031
      6          6           0       -1.447325   -0.437860   -1.110830
      7          1           0       -0.914462    0.797765    1.980986
      8          1           0       -3.355363   -0.783593   -1.991035
      9          1           0       -0.914491   -0.797490   -1.981076
     10          6           0        0.740229    0.000109   -0.000016
     11          6           0        1.447379    0.437502   -1.110991
     12          6           0        1.447259   -0.437322    1.111037
     13          6           0        2.824033    0.443666   -1.111944
     14          6           0        2.823909   -0.443539    1.112143
     15          6           0        3.524910    0.000034    0.000126
     16          1           0        0.914614    0.796709   -1.981454
     17          1           0        0.914365   -0.796519    1.981427
     18          1           0        3.355477    0.782802   -1.991269
     19          1           0        3.355249   -0.782652    1.991539
     20          1           0       -3.355316    0.783824    1.991014
     21          6           0        4.975135    0.000032    0.000145
     22          6           0        6.146520   -0.565054    0.408043
     23          6           0        6.146453    0.565050   -0.408017
     24          7           0        6.780980   -1.491697    1.066857
     25          7           0        6.780843    1.491604   -1.067037
     26          6           0        6.057956   -2.591048    1.684578
     27          1           0        6.154708   -2.545100    2.768364
     28          1           0        5.008879   -2.544629    1.410837
     29          1           0        6.464629   -3.537319    1.332266
     30          6           0        8.228734   -1.518275    1.186143
     31          1           0        8.494477   -1.775383    2.209103
     32          1           0        8.659441   -2.259109    0.513350
     33          1           0        8.642938   -0.539771    0.968827
     34          6           0        6.057730    2.591089   -1.684422
     35          1           0        6.153192    2.544651   -2.768303
     36          1           0        5.008941    2.545387   -1.409434
     37          1           0        6.465326    3.537274   -1.332961
     38          6           0        8.228631    1.518112   -1.186291
     39          1           0        8.494234    1.779605   -2.208151
     40          1           0        8.659838    2.255827   -0.510389
     41          1           0        8.642467    0.538433   -0.973542
     42          6           0       -4.975109    0.000078    0.000026
     43          6           0       -6.146534    0.565080    0.407916
     44          6           0       -6.146403   -0.565147   -0.407945
     45          7           0       -6.781069    1.491701    1.066705
     46          7           0       -6.780732   -1.491927   -1.066700
     47          6           0       -6.058202    2.591312    1.684129
     48          1           0       -6.154554    2.545406    2.767953
     49          1           0       -5.009205    2.545245    1.410016
     50          1           0       -6.465319    3.537423    1.331906
     51          6           0       -8.228858    1.518145    1.185797
     52          1           0       -8.494704    1.776946    2.208295
     53          1           0       -8.659724    2.257735    0.511728
     54          1           0       -8.642813    0.539154    0.970202
     55          6           0       -6.057561   -2.591370   -1.684106
     56          1           0       -6.153074   -2.544964   -2.767982
     57          1           0       -5.008776   -2.545628   -1.409122
     58          1           0       -6.465122   -3.537559   -1.332610
     59          6           0       -8.228499   -1.518584   -1.185941
     60          1           0       -8.494145   -1.779106   -2.208049
     61          1           0       -8.659520   -2.257040   -0.510729
     62          1           0       -8.642516   -0.539209   -0.972160
 ---------------------------------------------------------------------

 The electronic state is 1-A.
 Alpha  occ. eigenvalues --  -14.48068 -14.48068 -14.48067 -14.48067 -10.42569
 Alpha  occ. eigenvalues --  -10.42569 -10.42519 -10.42519 -10.38229 -10.38229
 Alpha  occ. eigenvalues --  -10.34830 -10.34829 -10.34809 -10.34808 -10.34807
 Alpha  occ. eigenvalues --  -10.34807 -10.34730 -10.34729 -10.34729 -10.34729
 Alpha  occ. eigenvalues --  -10.33453 -10.33431 -10.32723 -10.32723 -10.32721
 Alpha  occ. eigenvalues --  -10.32720 -10.31914 -10.31914 -10.31912 -10.31911
 Alpha  occ. eigenvalues --   -1.37257  -1.37257  -1.33703  -1.33703  -1.28210
 Alpha  occ. eigenvalues --   -1.28197  -1.24195  -1.22269  -1.15413  -1.10897
 Alpha  occ. eigenvalues --   -1.10329  -1.10151  -1.08793  -1.08584  -1.08313
 Alpha  occ. eigenvalues --   -1.08301  -1.06757  -1.06756  -1.05502  -1.05215
 Alpha  occ. eigenvalues --   -1.00458  -0.96806  -0.94661  -0.94060  -0.89706
 Alpha  occ. eigenvalues --   -0.89287  -0.88672  -0.88543  -0.88046  -0.87723
 Alpha  occ. eigenvalues --   -0.84696  -0.83878  -0.83791  -0.82992  -0.82140
 Alpha  occ. eigenvalues --   -0.81753  -0.81557  -0.80902  -0.80894  -0.80173
 Alpha  occ. eigenvalues --   -0.78001  -0.76599  -0.76365  -0.74882  -0.74845
 Alpha  occ. eigenvalues --   -0.74605  -0.74181  -0.74144  -0.73964  -0.73816
 Alpha  occ. eigenvalues --   -0.73718  -0.72676  -0.72373  -0.72353  -0.72196
 Alpha  occ. eigenvalues --   -0.72193  -0.71527  -0.71072  -0.71016  -0.71014
 Alpha  occ. eigenvalues --   -0.70336  -0.69667  -0.69638  -0.68715  -0.68312
 Alpha  occ. eigenvalues --   -0.66771  -0.66157  -0.64837  -0.64388  -0.61350
 Alpha  occ. eigenvalues --   -0.61342  -0.59330  -0.55801  -0.55307  -0.55200
 Alpha  occ. eigenvalues --   -0.51970  -0.49801
 Alpha virt. eigenvalues --   -0.17050  -0.13090  -0.11023  -0.10962  -0.06499
 Alpha virt. eigenvalues --   -0.06480  -0.06286  -0.06260  -0.06168  -0.04164
 Alpha virt. eigenvalues --   -0.03350  -0.03285  -0.02307  -0.01745  -0.01067

 Mulliken charges:
               1
     1  C   -0.121994
     2  C    0.148556
     3  C   -0.174888
     4  C   -0.122017
     5  C   -0.006483
     6  C   -0.174849
     7  H    0.197172
     8  H    0.194791
     9  H    0.197160
    10  C   -0.006463
    11  C   -0.174842
    12  C   -0.174889
    13  C   -0.122027
    14  C   -0.121998
    15  C    0.148563
    16  H    0.197157
    17  H    0.197173
    18  H    0.194793
    19  H    0.194767
    20  H    0.194767
    21  C   -0.415456
    22  C    0.076673
    23  C    0.076640
    24  N   -0.036213
    25  N   -0.036193
    26  C   -0.259107
    27  H    0.182952
    28  H    0.150925
    29  H    0.175887
    30  C   -0.258960
    31  H    0.175340
    32  H    0.190198
    33  H    0.144051
    34  C   -0.259449
    35  H    0.183032
    36  H    0.150982
    37  H    0.175973
    38  C   -0.259556
    39  H    0.175423
    40  H    0.190326
    41  H    0.144307
    42  C   -0.415478
    43  C    0.076701
    44  C    0.076673
    45  N   -0.036187
    46  N   -0.036191
    47  C   -0.259209
    48  H    0.182982
    49  H    0.150931
    50  H    0.175914
    51  C   -0.259188
    52  H    0.175371
    53  H    0.190244
    54  H    0.144144
    55  C   -0.259398
    56  H    0.183028
    57  H    0.150976
    58  H    0.175953
    59  C   -0.259433
    60  H    0.175408
    61  H    0.190299
    62  H    0.144240
 Sum of Mulliken charges =   2.00000

 Dipole moment (field-independent basis, Debye):
    X=              0.0002    Y=             -0.0001    Z=             -0.0004  Tot=              0.0005
 Quadrupole moment (field-independent basis, Debye-Ang):
   XX=            266.3848   YY=           -135.2582   ZZ=           -142.3963
   XY=              0.0038   XZ=             -0.0005   YZ=              0.0017

 Normal termination of Gaussian 16 at Tue Jan 26 03:11:34 2021.
