 Gaussian 16, Revision A.03,
 Gaussian 16:  EM64L-G16RevA.03 25-Dec-2016

 ------------------------------------------------------------
 #P LC-wHPBE/TZVP iop(3/107=0185200000, 3/108=0185200000) opt
 ------------------------------------------------------------

 -------------
 H28 C36 N2 O4
 -------------
 Symbolic Z-matrix:
 Charge =  0 Multiplicity = 1

 SCF Done:  E(RLC-wHPBE) =  -1797.83537252     A.U. after   16 cycles
 SCF Done:  E(RLC-wHPBE) =  -1797.90403803     A.U. after   15 cycles
 SCF Done:  E(RLC-wHPBE) =  -1797.95154486     A.U. after   16 cycles
 SCF Done:  E(RLC-wHPBE) =  -1797.97061475     A.U. after   15 cycles
 SCF Done:  E(RLC-wHPBE) =  -1797.98069854     A.U. after   15 cycles
 SCF Done:  E(RLC-wHPBE) =  -1797.98788213     A.U. after   16 cycles
 SCF Done:  E(RLC-wHPBE) =  -1797.99345054     A.U. after   16 cycles
 SCF Done:  E(RLC-wHPBE) =  -1797.99702984     A.U. after   17 cycles
 SCF Done:  E(RLC-wHPBE) =  -1798.00038698     A.U. after   17 cycles
 SCF Done:  E(RLC-wHPBE) =  -1798.00253138     A.U. after   17 cycles
 SCF Done:  E(RLC-wHPBE) =  -1798.00313946     A.U. after   13 cycles
 SCF Done:  E(RLC-wHPBE) =  -1798.00315109     A.U. after   12 cycles
 SCF Done:  E(RLC-wHPBE) =  -1798.00315426     A.U. after   12 cycles
 SCF Done:  E(RLC-wHPBE) =  -1798.00315561     A.U. after   12 cycles
 SCF Done:  E(RLC-wHPBE) =  -1798.00315658     A.U. after   12 cycles
 SCF Done:  E(RLC-wHPBE) =  -1798.00315696     A.U. after    9 cycles
 SCF Done:  E(RLC-wHPBE) =  -1798.00315714     A.U. after    9 cycles
 SCF Done:  E(RLC-wHPBE) =  -1798.00315718     A.U. after    8 cycles
 SCF Done:  E(RLC-wHPBE) =  -1798.00315721     A.U. after    8 cycles
 SCF Done:  E(RLC-wHPBE) =  -1798.00315722     A.U. after    7 cycles
 Optimization completed.
    -- Stationary point found.

                         Standard orientation:
 ---------------------------------------------------------------------
 Center     Atomic      Atomic             Coordinates (Angstroms)
 Number     Number       Type             X           Y           Z
 ---------------------------------------------------------------------
      1          6           0        2.858499    1.142103   -0.374244
      2          6           0        3.579312   -0.001087    0.003359
      3          6           0        1.469111    1.138314   -0.362939
      4          6           0        2.858875   -1.143435    0.384264
      5          6           0        0.739097    0.000512    0.009817
      6          6           0        1.469477   -1.138129    0.379362
      7          1           0        0.937192    2.033473   -0.688815
      8          1           0        3.397761   -2.037798    0.696269
      9          1           0        0.938071   -2.032504    0.708142
     10          6           0       -0.742883    0.001384    0.012974
     11          6           0       -1.474511   -1.130858   -0.372988
     12          6           0       -1.471490    1.134716    0.402503
     13          6           0       -2.864100   -1.134318   -0.378218
     14          6           0       -2.860735    1.140009    0.413286
     15          6           0       -3.582937    0.003346    0.018716
     16          1           0       -0.944110   -2.021230   -0.714069
     17          1           0       -0.938347    2.023708    0.742945
     18          1           0       -3.404263   -2.023625   -0.702274
     19          1           0       -3.398798    2.029064    0.741639
     20          1           0        3.397024    2.035914   -0.688457
     21          7           0       -4.995311    0.005703    0.022721
     22          6           0       -5.713915    1.185510   -0.315496
     23          6           0       -6.824749    1.586223    0.439679
     24          6           0       -5.336499    1.964565   -1.414395
     25          6           0       -7.543368    2.726588    0.103607
     26          6           0       -6.037549    3.122582   -1.739703
     27          6           0       -7.148838    3.505710   -0.986012
     28          1           0       -7.129554    0.987536    1.298124
     29          1           0       -4.477812    1.664402   -2.014832
     30          1           0       -8.408278    3.036049    0.689802
     31          1           0       -5.724570    3.720924   -2.598980
     32          6           0       -5.717056   -1.178925    0.336296
     33          6           0       -6.821807   -1.565845   -0.429047
     34          6           0       -5.346761   -1.975943    1.428789
     35          6           0       -7.543924   -2.712298   -0.107280
     36          6           0       -6.047800   -3.134194    1.738027
     37          6           0       -7.155651   -3.506391    0.973222
     38          1           0       -7.124426   -0.956025   -1.280239
     39          1           0       -4.491517   -1.682511    2.037555
     40          1           0       -8.407549   -2.995534   -0.714075
     41          1           0       -5.757368   -3.754511    2.585554
     42          7           0        4.991423   -0.001999    0.000060
     43          6           0        5.710552   -1.183762   -0.330631
     44          6           0        6.812654   -1.584277    0.431608
     45          6           0        5.340603   -1.964026   -1.435102
     46          6           0        7.532572   -2.727778    0.095183
     47          6           0        6.039551   -3.119564   -1.759528
     48          6           0        7.144632   -3.505373   -0.997606
     49          1           0        7.113605   -0.987752    1.292811
     50          1           0        4.486562   -1.660323   -2.040543
     51          1           0        8.393358   -3.022713    0.700462
     52          1           0        5.749024   -3.727528   -2.615933
     53          6           0        5.713955    1.178690    0.326778
     54          6           0        6.814458    1.575861   -0.439552
     55          6           0        5.349314    1.961286    1.431414
     56          6           0        7.537888    2.718318   -0.107058
     57          6           0        6.051756    3.115796    1.751909
     58          6           0        7.155153    3.498257    0.985865
     59          1           0        7.111509    0.977436   -1.300789
     60          1           0        4.496830    1.660119    2.040298
     61          1           0        8.397429    3.010471   -0.715458
     62          1           0        5.765438    3.725350    2.608604
     63          8           0        7.820509    4.641023    1.355507
     64          1           0        8.555246    4.788670    0.739309
     65          8           0        7.806379   -4.648952   -1.371018
     66          1           0        8.541702   -4.800061   -0.756350
     67          8           0       -7.887404    4.628973   -1.265636
     68          1           0       -7.503413    5.071476   -2.038990
     69          8           0       -7.819547   -4.653451    1.332021
     70          1           0       -8.560354   -4.790553    0.720672
 ---------------------------------------------------------------------

 The electronic state is 1-A.
 Alpha  occ. eigenvalues --  -18.88771 -18.88766 -18.88713 -18.88643 -14.12021
 Alpha  occ. eigenvalues --  -14.11966 -10.05285 -10.05283 -10.05225 -10.05156
 Alpha  occ. eigenvalues --  -10.02979 -10.02953 -10.02878 -10.02873 -10.02821
 Alpha  occ. eigenvalues --  -10.02780  -9.99858  -9.99853  -9.99802  -9.99732
 Alpha  occ. eigenvalues --   -9.99698  -9.99695  -9.99633  -9.99579  -9.99530
 Alpha  occ. eigenvalues --   -9.99528  -9.99474  -9.99414  -9.99376  -9.99362
 Alpha  occ. eigenvalues --   -9.99222  -9.99220  -9.99163  -9.99104  -9.98831
 Alpha  occ. eigenvalues --   -9.98824  -9.98818  -9.98816  -9.98583  -9.98578
 Alpha  occ. eigenvalues --   -9.98575  -9.98569  -1.08185  -1.08181  -1.08126
 Alpha  occ. eigenvalues --   -1.08057  -0.99222  -0.99164  -0.89671  -0.89206
 Alpha  occ. eigenvalues --   -0.89124  -0.88617  -0.87602  -0.86498  -0.81211
 Alpha  occ. eigenvalues --   -0.79530  -0.79477  -0.79377  -0.79003  -0.78919
 Alpha  occ. eigenvalues --   -0.78742  -0.78015  -0.77594  -0.77408  -0.75283
 Alpha  occ. eigenvalues --   -0.73272  -0.68991  -0.68281  -0.67693  -0.67512
 Alpha  occ. eigenvalues --   -0.67079  -0.66384  -0.65967  -0.65340  -0.64243
 Alpha  occ. eigenvalues --   -0.63485  -0.62774  -0.61631  -0.60045  -0.59948
 Alpha  occ. eigenvalues --   -0.59901  -0.59869  -0.58850  -0.58238  -0.57702
 Alpha  occ. eigenvalues --   -0.57283  -0.55025  -0.53654  -0.53443  -0.52245
 Alpha  occ. eigenvalues --   -0.51915  -0.51596  -0.49894  -0.49704  -0.49635
 Alpha  occ. eigenvalues --   -0.49587  -0.49103  -0.48993  -0.48761  -0.47907
 Alpha  occ. eigenvalues --   -0.47893  -0.47808  -0.47656  -0.47343  -0.47168
 Alpha  occ. eigenvalues --   -0.47073  -0.46874  -0.46760  -0.46630  -0.46530
 Alpha  occ. eigenvalues --   -0.46216  -0.45289  -0.45128  -0.44825  -0.43802
 Alpha  occ. eigenvalues --   -0.43679  -0.43325  -0.42945  -0.42689  -0.42602
 Alpha  occ. eigenvalues --   -0.41044  -0.40775  -0.40494  -0.40412  -0.39986
 Alpha  occ. eigenvalues --   -0.39768  -0.39655  -0.39416  -0.39352  -0.39199
 Alpha  occ. eigenvalues --   -0.38527  -0.36316  -0.34672  -0.32854  -0.32792
 Alpha  occ. eigenvalues --   -0.32344  -0.32095  -0.31471  -0.31363  -0.31331
 Alpha  occ. eigenvalues --   -0.29581  -0.29458  -0.29234  -0.24079  -0.22552
 Alpha virt. eigenvalues --    0.01507   0.02187   0.02275   0.03875   0.03965
 Alpha virt. eigenvalues --    0.04235   0.04336   0.04750   0.05101   0.05177
 Alpha virt. eigenvalues --    0.07678   0.08242   0.08299   0.08324   0.08399

 Mulliken charges:
               1
     1  C   -0.148345
     2  C    0.017041
     3  C   -0.151342
     4  C   -0.148287
     5  C    0.029571
     6  C   -0.151313
     7  H    0.119859
     8  H    0.145544
     9  H    0.121511
    10  C    0.029894
    11  C   -0.151497
    12  C   -0.151004
    13  C   -0.145673
    14  C   -0.149375
    15  C    0.012226
    16  H    0.121207
    17  H    0.121339
    18  H    0.145583
    19  H    0.144639
    20  H    0.145260
    21  N   -0.003681
    22  C   -0.113271
    23  C   -0.059531
    24  C   -0.084691
    25  C   -0.203433
    26  C   -0.176232
    27  C    0.118489
    28  H    0.135299
    29  H    0.143716
    30  H    0.117616
    31  H    0.107134
    32  C   -0.107276
    33  C   -0.081850
    34  C   -0.067229
    35  C   -0.173485
    36  C   -0.200184
    37  C    0.115373
    38  H    0.137026
    39  H    0.142393
    40  H    0.107690
    41  H    0.117810
    42  N   -0.002813
    43  C   -0.116278
    44  C   -0.081032
    45  C   -0.061550
    46  C   -0.174418
    47  C   -0.201278
    48  C    0.116078
    49  H    0.136400
    50  H    0.142068
    51  H    0.107933
    52  H    0.117792
    53  C   -0.114635
    54  C   -0.081741
    55  C   -0.062760
    56  C   -0.174393
    57  C   -0.201196
    58  C    0.115876
    59  H    0.136412
    60  H    0.142605
    61  H    0.107792
    62  H    0.117984
    63  O   -0.242716
    64  H    0.268436
    65  O   -0.242697
    66  H    0.268513
    67  O   -0.243033
    68  H    0.268502
    69  O   -0.242849
    70  H    0.268472
 Sum of Mulliken charges =  -0.00000

 Dipole moment (field-independent basis, Debye):
    X=              1.6806    Y=              0.4222    Z=             -2.0491  Tot=              2.6836
 Quadrupole moment (field-independent basis, Debye-Ang):
   XX=           -190.6887   YY=           -232.7900   ZZ=           -241.7402
   XY=              5.2448   XZ=             14.6968   YZ=            -12.0479

 Normal termination of Gaussian 16 at Mon Jan 18 03:26:58 2021.
