 Gaussian 16, Revision A.03,
 Gaussian 16:  EM64L-G16RevA.03 25-Dec-2016

 ----------------------------------------------------------------------
 #P LC-wHPBE/TZVP iop(3/107=0221900000, 3/108=0221900000) scf=(conver=6
 ,fermi,ndamp=35,noincfock,novaracc,vshift=500,xqc)
 ----------------------------------------------------------------------

 -------------
 H28 C36 S2 N2
 -------------
 Symbolic Z-matrix:
 Charge =  0 Multiplicity = 1

                         Standard orientation:
 ---------------------------------------------------------------------
 Center     Atomic      Atomic             Coordinates (Angstroms)
 Number     Number       Type             X           Y           Z
 ---------------------------------------------------------------------
      1          6           0       -2.604951   -0.985352    0.477595
      2          6           0       -1.595468   -1.227646    1.396897
      3         16           0       -0.459746   -2.557842    1.073663
      4          6           0       -1.509976   -0.467226    2.564163
      5          6           0        1.043777   -0.455726    0.021717
      6          6           0        1.038330   -1.682104    0.668307
      7          6           0       -3.557585    0.001751    0.697168
      8          6           0       -2.447111    0.539154    2.764444
      9          1           0       -0.596318    0.142670    4.605045
     10          6           0        2.238728    0.147647   -0.319798
     11          6           0        2.246539   -2.297832    0.961919
     12          6           0        3.442101   -1.694718    0.621166
     13          6           0        3.453096   -0.462920   -0.023837
     14          1           0        2.234263    1.106243   -0.827797
     15          1           0        2.253931   -3.248348    1.486346
     16          1           0        4.381679   -2.178238    0.866461
     17          6           0       -3.461673    0.764082    1.856276
     18          1           0       -2.646669   -1.585519   -0.424718
     19          1           0        0.106936    0.032641   -0.224382
     20          1           0       -2.404245    1.146243    3.663282
     21          1           0       -4.192893    1.542008    2.047877
     22         16           0       -0.233558   -0.817463    3.737465
     23          7           0        4.673686    0.159547   -0.368747
     24          6           0        5.732508   -0.612661   -0.896564
     25          6           0        7.045695   -0.377960   -0.499452
     26          6           0        5.475865   -1.622329   -1.819567
     27          6           0        8.078745   -1.133154   -1.024558
     28          6           0        6.512871   -2.384632   -2.326214
     29          6           0        7.820306   -2.143178   -1.936900
     30          1           0        7.251646    0.403669    0.224060
     31          1           0        4.454830   -1.807304   -2.136118
     32          1           0        9.097402   -0.936530   -0.704866
     33          1           0        6.295127   -3.169013   -3.044416
     34          1           0        8.632202   -2.738403   -2.341339
     35          6           0        4.837054    1.548147   -0.168533
     36          6           0        5.516065    2.321618   -1.105787
     37          6           0        4.319017    2.163542    0.967486
     38          6           0        5.679987    3.679833   -0.902534
     39          6           0        4.472338    3.525567    1.154010
     40          6           0        5.156657    4.292005    0.224805
     41          1           0        5.917204    1.848815   -1.995947
     42          1           0        3.791670    1.566068    1.703651
     43          1           0        6.213214    4.268058   -1.642948
     44          1           0        4.061647    3.989730    2.045325
     45          1           0        5.281223    5.358830    0.377899
     46          7           0       -4.591369    0.225236   -0.235572
     47          6           0       -4.996809    1.544618   -0.539366
     48          6           0       -6.345932    1.849462   -0.693639
     49          6           0       -4.053605    2.557013   -0.688173
     50          6           0       -6.738551    3.140118   -0.998819
     51          6           0       -4.455920    3.848924   -0.975713
     52          6           0       -5.798707    4.148587   -1.137139
     53          1           0       -7.085839    1.064984   -0.575406
     54          1           0       -2.999778    2.324624   -0.576668
     55          1           0       -7.794748    3.361033   -1.117399
     56          1           0       -3.707423    4.627077   -1.088273
     57          1           0       -6.110711    5.161215   -1.369943
     58          6           0       -5.228462   -0.872905   -0.859345
     59          6           0       -5.548183   -0.824769   -2.212595
     60          6           0       -5.541916   -2.014931   -0.129127
     61          6           0       -6.178047   -1.897088   -2.818017
     62          6           0       -6.155123   -3.090236   -0.746513
     63          6           0       -6.481192   -3.037227   -2.091754
     64          1           0       -5.300925    0.061617   -2.787177
     65          1           0       -5.299559   -2.056134    0.927579
     66          1           0       -6.421719   -1.844307   -3.874525
     67          1           0       -6.390696   -3.975287   -0.163884
     68          1           0       -6.967632   -3.879890   -2.571608
 ---------------------------------------------------------------------

 SCF Done:  E(RLC-wHPBE) =  -2293.40780423     A.U. after   16 cycles

 The electronic state is 1-A.
 Alpha  occ. eigenvalues --  -88.21974 -88.21633 -14.14721 -14.14152 -10.05970
 Alpha  occ. eigenvalues --  -10.05887 -10.05688 -10.05558 -10.05326 -10.05203
 Alpha  occ. eigenvalues --  -10.05186 -10.05143 -10.04268 -10.02650 -10.02205
 Alpha  occ. eigenvalues --  -10.02203 -10.01606 -10.01580 -10.01480 -10.01442
 Alpha  occ. eigenvalues --  -10.01432 -10.01429 -10.01355 -10.01291 -10.01205
 Alpha  occ. eigenvalues --  -10.01187 -10.01163 -10.01154 -10.01149 -10.01143
 Alpha  occ. eigenvalues --  -10.01133 -10.01123 -10.01095 -10.00957 -10.00833
 Alpha  occ. eigenvalues --  -10.00825 -10.00819 -10.00813 -10.00657 -10.00636
 Alpha  occ. eigenvalues --   -7.81269  -7.80847  -5.83443  -5.83043  -5.82951
 Alpha  occ. eigenvalues --   -5.82543  -5.82188  -5.81747  -1.02725  -1.02142
 Alpha  occ. eigenvalues --   -0.94296  -0.92388  -0.92134  -0.91716  -0.90756
 Alpha  occ. eigenvalues --   -0.90074  -0.86405  -0.85443  -0.82696  -0.82180
 Alpha  occ. eigenvalues --   -0.82005  -0.81418  -0.80901  -0.80869  -0.80665
 Alpha  occ. eigenvalues --   -0.80487  -0.79770  -0.78451  -0.76229  -0.74799
 Alpha  occ. eigenvalues --   -0.70164  -0.69617  -0.69412  -0.68883  -0.67874
 Alpha  occ. eigenvalues --   -0.67477  -0.67144  -0.66738  -0.66594  -0.65888
 Alpha  occ. eigenvalues --   -0.64062  -0.63402  -0.61301  -0.61062  -0.60809
 Alpha  occ. eigenvalues --   -0.60314  -0.57447  -0.56780  -0.56427  -0.55093
 Alpha  occ. eigenvalues --   -0.54935  -0.54431  -0.54143  -0.53774  -0.52974
 Alpha  occ. eigenvalues --   -0.52352  -0.52099  -0.51907  -0.51129  -0.50938
 Alpha  occ. eigenvalues --   -0.50696  -0.50339  -0.50113  -0.50028  -0.49537
 Alpha  occ. eigenvalues --   -0.49325  -0.49197  -0.49041  -0.48805  -0.48089
 Alpha  occ. eigenvalues --   -0.47407  -0.46326  -0.46228  -0.45787  -0.45616
 Alpha  occ. eigenvalues --   -0.45386  -0.45266  -0.43631  -0.43382  -0.42922
 Alpha  occ. eigenvalues --   -0.42604  -0.42448  -0.42137  -0.41617  -0.41561
 Alpha  occ. eigenvalues --   -0.41099  -0.40973  -0.40720  -0.40471  -0.39846
 Alpha  occ. eigenvalues --   -0.38578  -0.37081  -0.35754  -0.34513  -0.34298
 Alpha  occ. eigenvalues --   -0.34001  -0.33878  -0.33377  -0.33172  -0.32764
 Alpha  occ. eigenvalues --   -0.32759  -0.30743  -0.29823  -0.25510  -0.25019
 Alpha virt. eigenvalues --    0.01890   0.02636   0.03201   0.03374   0.03480
 Alpha virt. eigenvalues --    0.03771   0.04654   0.05505   0.05710   0.05903
 Alpha virt. eigenvalues --    0.07116   0.07660   0.08478   0.10337   0.10505

 Mulliken charges:
               1
     1  C   -0.058288
     2  C   -0.265479
     3  S    0.070012
     4  C   -0.018426
     5  C    0.015082
     6  C   -0.204283
     7  C   -0.032777
     8  C   -0.033551
     9  H    0.088774
    10  C   -0.120094
    11  C   -0.109295
    12  C   -0.097457
    13  C   -0.071626
    14  H    0.146594
    15  H    0.124381
    16  H    0.148128
    17  C   -0.145986
    18  H    0.155765
    19  H    0.148099
    20  H    0.112999
    21  H    0.155155
    22  S   -0.025867
    23  N   -0.017710
    24  C   -0.052441
    25  C   -0.119435
    26  C   -0.114516
    27  C   -0.113337
    28  C   -0.113406
    29  C   -0.107729
    30  H    0.154913
    31  H    0.153298
    32  H    0.107670
    33  H    0.108234
    34  H    0.106643
    35  C   -0.051658
    36  C   -0.123813
    37  C   -0.109949
    38  C   -0.113179
    39  C   -0.115332
    40  C   -0.108178
    41  H    0.155173
    42  H    0.157943
    43  H    0.107487
    44  H    0.106706
    45  H    0.105954
    46  N   -0.017246
    47  C   -0.082270
    48  C   -0.106243
    49  C   -0.101994
    50  C   -0.117557
    51  C   -0.121210
    52  C   -0.100887
    53  H    0.155227
    54  H    0.161825
    55  H    0.109344
    56  H    0.108390
    57  H    0.108263
    58  C   -0.060748
    59  C   -0.114311
    60  C   -0.108460
    61  C   -0.111385
    62  C   -0.111933
    63  C   -0.106423
    64  H    0.153146
    65  H    0.151835
    66  H    0.109232
    67  H    0.109823
    68  H    0.108383
 Sum of Mulliken charges =  -0.00000

 Dipole moment (field-independent basis, Debye):
    X=             -0.9746    Y=              2.0672    Z=             -0.1130  Tot=              2.2882
 Quadrupole moment (field-independent basis, Debye-Ang):
   XX=           -228.2300   YY=           -235.4572   ZZ=           -238.3947
   XY=             -1.8376   XZ=             -0.3236   YZ=              7.1242

 Normal termination of Gaussian 16 at Wed Jan 27 09:11:51 2021.
