 Gaussian 16, Revision A.03,
 Gaussian 16:  EM64L-G16RevA.03 25-Dec-2016

 ----------------------------------------------------------------------
 #P LC-wHPBE/TZVP iop(3/107=0203600000, 3/108=0203600000) scf=(conver=6
 ,fermi,ndamp=35,noincfock,novaracc,vshift=500,xqc)
 ----------------------------------------------------------------------

 -------------
 H28 C36 S2 N2
 -------------
 Symbolic Z-matrix:
 Charge =  0 Multiplicity = 1

                         Standard orientation:
 ---------------------------------------------------------------------
 Center     Atomic      Atomic             Coordinates (Angstroms)
 Number     Number       Type             X           Y           Z
 ---------------------------------------------------------------------
      1          6           0       -2.604951   -0.985352    0.477595
      2          6           0       -1.595468   -1.227646    1.396897
      3         16           0       -0.459746   -2.557842    1.073663
      4          6           0       -1.509976   -0.467226    2.564163
      5          6           0        1.043777   -0.455726    0.021717
      6          6           0        1.038330   -1.682104    0.668307
      7          6           0       -3.557585    0.001751    0.697168
      8          6           0       -2.447111    0.539154    2.764444
      9          1           0       -0.596318    0.142670    4.605045
     10          6           0        2.238728    0.147647   -0.319798
     11          6           0        2.246539   -2.297832    0.961919
     12          6           0        3.442101   -1.694718    0.621166
     13          6           0        3.453096   -0.462920   -0.023837
     14          1           0        2.234263    1.106243   -0.827797
     15          1           0        2.253931   -3.248348    1.486346
     16          1           0        4.381679   -2.178238    0.866461
     17          6           0       -3.461673    0.764082    1.856276
     18          1           0       -2.646669   -1.585519   -0.424718
     19          1           0        0.106936    0.032641   -0.224382
     20          1           0       -2.404245    1.146243    3.663282
     21          1           0       -4.192893    1.542008    2.047877
     22         16           0       -0.233558   -0.817463    3.737465
     23          7           0        4.673686    0.159547   -0.368747
     24          6           0        5.732508   -0.612661   -0.896564
     25          6           0        7.045695   -0.377960   -0.499452
     26          6           0        5.475865   -1.622329   -1.819567
     27          6           0        8.078745   -1.133154   -1.024558
     28          6           0        6.512871   -2.384632   -2.326214
     29          6           0        7.820306   -2.143178   -1.936900
     30          1           0        7.251646    0.403669    0.224060
     31          1           0        4.454830   -1.807304   -2.136118
     32          1           0        9.097402   -0.936530   -0.704866
     33          1           0        6.295127   -3.169013   -3.044416
     34          1           0        8.632202   -2.738403   -2.341339
     35          6           0        4.837054    1.548147   -0.168533
     36          6           0        5.516065    2.321618   -1.105787
     37          6           0        4.319017    2.163542    0.967486
     38          6           0        5.679987    3.679833   -0.902534
     39          6           0        4.472338    3.525567    1.154010
     40          6           0        5.156657    4.292005    0.224805
     41          1           0        5.917204    1.848815   -1.995947
     42          1           0        3.791670    1.566068    1.703651
     43          1           0        6.213214    4.268058   -1.642948
     44          1           0        4.061647    3.989730    2.045325
     45          1           0        5.281223    5.358830    0.377899
     46          7           0       -4.591369    0.225236   -0.235572
     47          6           0       -4.996809    1.544618   -0.539366
     48          6           0       -6.345932    1.849462   -0.693639
     49          6           0       -4.053605    2.557013   -0.688173
     50          6           0       -6.738551    3.140118   -0.998819
     51          6           0       -4.455920    3.848924   -0.975713
     52          6           0       -5.798707    4.148587   -1.137139
     53          1           0       -7.085839    1.064984   -0.575406
     54          1           0       -2.999778    2.324624   -0.576668
     55          1           0       -7.794748    3.361033   -1.117399
     56          1           0       -3.707423    4.627077   -1.088273
     57          1           0       -6.110711    5.161215   -1.369943
     58          6           0       -5.228462   -0.872905   -0.859345
     59          6           0       -5.548183   -0.824769   -2.212595
     60          6           0       -5.541916   -2.014931   -0.129127
     61          6           0       -6.178047   -1.897088   -2.818017
     62          6           0       -6.155123   -3.090236   -0.746513
     63          6           0       -6.481192   -3.037227   -2.091754
     64          1           0       -5.300925    0.061617   -2.787177
     65          1           0       -5.299559   -2.056134    0.927579
     66          1           0       -6.421719   -1.844307   -3.874525
     67          1           0       -6.390696   -3.975287   -0.163884
     68          1           0       -6.967632   -3.879890   -2.571608
 ---------------------------------------------------------------------

 SCF Done:  E(RLC-wHPBE) =  -2293.36925975     A.U. after   16 cycles

 The electronic state is 1-A.
 Alpha  occ. eigenvalues --  -88.20991 -88.20642 -14.13764 -14.13199 -10.04914
 Alpha  occ. eigenvalues --  -10.04833 -10.04640 -10.04512 -10.04277 -10.04157
 Alpha  occ. eigenvalues --  -10.04141 -10.04094 -10.03224 -10.01609 -10.01167
 Alpha  occ. eigenvalues --  -10.01163 -10.00569 -10.00544 -10.00445 -10.00408
 Alpha  occ. eigenvalues --  -10.00399 -10.00392 -10.00326 -10.00263 -10.00178
 Alpha  occ. eigenvalues --  -10.00160 -10.00136 -10.00120 -10.00116 -10.00116
 Alpha  occ. eigenvalues --  -10.00100 -10.00090 -10.00063  -9.99927  -9.99807
 Alpha  occ. eigenvalues --   -9.99800  -9.99793  -9.99788  -9.99627  -9.99607
 Alpha  occ. eigenvalues --   -7.80264  -7.79834  -5.82461  -5.82053  -5.81974
 Alpha  occ. eigenvalues --   -5.81558  -5.81215  -5.80767  -1.01655  -1.01076
 Alpha  occ. eigenvalues --   -0.93190  -0.91294  -0.91041  -0.90625  -0.89674
 Alpha  occ. eigenvalues --   -0.88996  -0.85345  -0.84393  -0.81661  -0.81147
 Alpha  occ. eigenvalues --   -0.80976  -0.80384  -0.79871  -0.79839  -0.79635
 Alpha  occ. eigenvalues --   -0.79459  -0.78762  -0.77449  -0.75251  -0.73829
 Alpha  occ. eigenvalues --   -0.69232  -0.68688  -0.68490  -0.67961  -0.66947
 Alpha  occ. eigenvalues --   -0.66551  -0.66224  -0.65822  -0.65680  -0.64985
 Alpha  occ. eigenvalues --   -0.63172  -0.62516  -0.60436  -0.60203  -0.59947
 Alpha  occ. eigenvalues --   -0.59469  -0.56616  -0.55948  -0.55603  -0.54284
 Alpha  occ. eigenvalues --   -0.54133  -0.53634  -0.53332  -0.52991  -0.52177
 Alpha  occ. eigenvalues --   -0.51559  -0.51313  -0.51118  -0.50348  -0.50153
 Alpha  occ. eigenvalues --   -0.49926  -0.49575  -0.49349  -0.49264  -0.48765
 Alpha  occ. eigenvalues --   -0.48557  -0.48434  -0.48272  -0.48044  -0.47347
 Alpha  occ. eigenvalues --   -0.46634  -0.45577  -0.45430  -0.44987  -0.44821
 Alpha  occ. eigenvalues --   -0.44596  -0.44528  -0.42941  -0.42688  -0.42232
 Alpha  occ. eigenvalues --   -0.41911  -0.41759  -0.41442  -0.40944  -0.40897
 Alpha  occ. eigenvalues --   -0.40429  -0.40305  -0.40050  -0.39809  -0.39183
 Alpha  occ. eigenvalues --   -0.37922  -0.36459  -0.35160  -0.33979  -0.33765
 Alpha  occ. eigenvalues --   -0.33467  -0.33346  -0.32852  -0.32646  -0.32243
 Alpha  occ. eigenvalues --   -0.32234  -0.30221  -0.29296  -0.25079  -0.24590
 Alpha virt. eigenvalues --    0.01522   0.02271   0.02821   0.02992   0.03101
 Alpha virt. eigenvalues --    0.03388   0.04243   0.05083   0.05286   0.05479
 Alpha virt. eigenvalues --    0.06653   0.07232   0.08045   0.09943   0.10062

 Mulliken charges:
               1
     1  C   -0.057240
     2  C   -0.261869
     3  S    0.066662
     4  C   -0.015635
     5  C    0.017743
     6  C   -0.202386
     7  C   -0.031828
     8  C   -0.032138
     9  H    0.089058
    10  C   -0.119385
    11  C   -0.107374
    12  C   -0.096044
    13  C   -0.070498
    14  H    0.143611
    15  H    0.121861
    16  H    0.145228
    17  C   -0.144431
    18  H    0.152100
    19  H    0.146238
    20  H    0.110418
    21  H    0.152200
    22  S   -0.028215
    23  N   -0.011451
    24  C   -0.053031
    25  C   -0.117449
    26  C   -0.112490
    27  C   -0.111566
    28  C   -0.111627
    29  C   -0.104761
    30  H    0.152163
    31  H    0.150518
    32  H    0.105485
    33  H    0.106046
    34  H    0.104404
    35  C   -0.052283
    36  C   -0.121848
    37  C   -0.107825
    38  C   -0.111408
    39  C   -0.113582
    40  C   -0.105183
    41  H    0.152416
    42  H    0.155134
    43  H    0.105300
    44  H    0.104509
    45  H    0.103710
    46  N   -0.010996
    47  C   -0.083101
    48  C   -0.104227
    49  C   -0.099869
    50  C   -0.115777
    51  C   -0.119550
    52  C   -0.097853
    53  H    0.152457
    54  H    0.159293
    55  H    0.107155
    56  H    0.106183
    57  H    0.106026
    58  C   -0.061400
    59  C   -0.112332
    60  C   -0.106392
    61  C   -0.109574
    62  C   -0.110173
    63  C   -0.103482
    64  H    0.150411
    65  H    0.149094
    66  H    0.107055
    67  H    0.107637
    68  H    0.106155
 Sum of Mulliken charges =  -0.00000

 Dipole moment (field-independent basis, Debye):
    X=             -0.9707    Y=              2.0479    Z=             -0.1013  Tot=              2.2686
 Quadrupole moment (field-independent basis, Debye-Ang):
   XX=           -228.5515   YY=           -235.6734   ZZ=           -238.5336
   XY=             -1.8206   XZ=             -0.3132   YZ=              7.0672

 Normal termination of Gaussian 16 at Wed Jan 27 19:10:07 2021.
