 Gaussian 16, Revision A.03,
 Gaussian 16:  EM64L-G16RevA.03 25-Dec-2016

 ----------------------------------------------------------------------
 #P LC-wHPBE/TZVP iop(3/107=0221600000, 3/108=0221600000) scf=(conver=6
 ,fermi,ndamp=35,noincfock,novaracc,vshift=500,xqc)
 ----------------------------------------------------------------------

 -------------
 H28 C36 S2 N2
 -------------
 Symbolic Z-matrix:
 Charge =  1 Multiplicity = 2

                         Standard orientation:
 ---------------------------------------------------------------------
 Center     Atomic      Atomic             Coordinates (Angstroms)
 Number     Number       Type             X           Y           Z
 ---------------------------------------------------------------------
      1          6           0       -2.604951   -0.985352    0.477595
      2          6           0       -1.595468   -1.227646    1.396897
      3         16           0       -0.459746   -2.557842    1.073663
      4          6           0       -1.509976   -0.467226    2.564163
      5          6           0        1.043777   -0.455726    0.021717
      6          6           0        1.038330   -1.682104    0.668307
      7          6           0       -3.557585    0.001751    0.697168
      8          6           0       -2.447111    0.539154    2.764444
      9          1           0       -0.596318    0.142670    4.605045
     10          6           0        2.238728    0.147647   -0.319798
     11          6           0        2.246539   -2.297832    0.961919
     12          6           0        3.442101   -1.694718    0.621166
     13          6           0        3.453096   -0.462920   -0.023837
     14          1           0        2.234263    1.106243   -0.827797
     15          1           0        2.253931   -3.248348    1.486346
     16          1           0        4.381679   -2.178238    0.866461
     17          6           0       -3.461673    0.764082    1.856276
     18          1           0       -2.646669   -1.585519   -0.424718
     19          1           0        0.106936    0.032641   -0.224382
     20          1           0       -2.404245    1.146243    3.663282
     21          1           0       -4.192893    1.542008    2.047877
     22         16           0       -0.233558   -0.817463    3.737465
     23          7           0        4.673686    0.159547   -0.368747
     24          6           0        5.732508   -0.612661   -0.896564
     25          6           0        7.045695   -0.377960   -0.499452
     26          6           0        5.475865   -1.622329   -1.819567
     27          6           0        8.078745   -1.133154   -1.024558
     28          6           0        6.512871   -2.384632   -2.326214
     29          6           0        7.820306   -2.143178   -1.936900
     30          1           0        7.251646    0.403669    0.224060
     31          1           0        4.454830   -1.807304   -2.136118
     32          1           0        9.097402   -0.936530   -0.704866
     33          1           0        6.295127   -3.169013   -3.044416
     34          1           0        8.632202   -2.738403   -2.341339
     35          6           0        4.837054    1.548147   -0.168533
     36          6           0        5.516065    2.321618   -1.105787
     37          6           0        4.319017    2.163542    0.967486
     38          6           0        5.679987    3.679833   -0.902534
     39          6           0        4.472338    3.525567    1.154010
     40          6           0        5.156657    4.292005    0.224805
     41          1           0        5.917204    1.848815   -1.995947
     42          1           0        3.791670    1.566068    1.703651
     43          1           0        6.213214    4.268058   -1.642948
     44          1           0        4.061647    3.989730    2.045325
     45          1           0        5.281223    5.358830    0.377899
     46          7           0       -4.591369    0.225236   -0.235572
     47          6           0       -4.996809    1.544618   -0.539366
     48          6           0       -6.345932    1.849462   -0.693639
     49          6           0       -4.053605    2.557013   -0.688173
     50          6           0       -6.738551    3.140118   -0.998819
     51          6           0       -4.455920    3.848924   -0.975713
     52          6           0       -5.798707    4.148587   -1.137139
     53          1           0       -7.085839    1.064984   -0.575406
     54          1           0       -2.999778    2.324624   -0.576668
     55          1           0       -7.794748    3.361033   -1.117399
     56          1           0       -3.707423    4.627077   -1.088273
     57          1           0       -6.110711    5.161215   -1.369943
     58          6           0       -5.228462   -0.872905   -0.859345
     59          6           0       -5.548183   -0.824769   -2.212595
     60          6           0       -5.541916   -2.014931   -0.129127
     61          6           0       -6.178047   -1.897088   -2.818017
     62          6           0       -6.155123   -3.090236   -0.746513
     63          6           0       -6.481192   -3.037227   -2.091754
     64          1           0       -5.300925    0.061617   -2.787177
     65          1           0       -5.299559   -2.056134    0.927579
     66          1           0       -6.421719   -1.844307   -3.874525
     67          1           0       -6.390696   -3.975287   -0.163884
     68          1           0       -6.967632   -3.879890   -2.571608
 ---------------------------------------------------------------------

 SCF Done:  E(ULC-wHPBE) =  -2293.15890074     A.U. after   33 cycles
 SCF Done:  E(ULC-wHPBE) =  -2293.15890162     a.u. after    2 cycles

 The electronic state is 2-A.
 Alpha  occ. eigenvalues --  -88.33325 -88.33021 -14.29604 -14.25093 -10.18279
 Alpha  occ. eigenvalues --  -10.18184 -10.16902 -10.16732 -10.16582 -10.15471
 Alpha  occ. eigenvalues --  -10.14922 -10.14383 -10.14032 -10.14021 -10.13949
 Alpha  occ. eigenvalues --  -10.13708 -10.12339 -10.12104 -10.12092 -10.12005
 Alpha  occ. eigenvalues --  -10.11708 -10.11600 -10.11522 -10.11493 -10.11444
 Alpha  occ. eigenvalues --  -10.11382 -10.11353 -10.11291 -10.11255 -10.11229
 Alpha  occ. eigenvalues --  -10.09572 -10.09377 -10.09294 -10.09289 -10.09155
 Alpha  occ. eigenvalues --  -10.09149 -10.08941 -10.08932 -10.08866 -10.08617
 Alpha  occ. eigenvalues --   -7.92568  -7.92170  -5.94718  -5.94346  -5.94216
 Alpha  occ. eigenvalues --   -5.93833  -5.93576  -5.93158  -1.15746  -1.12119
 Alpha  occ. eigenvalues --   -1.06013  -1.02781  -1.02670  -1.01458  -1.00088
 Alpha  occ. eigenvalues --   -0.98871  -0.97641  -0.96658  -0.93441  -0.92548
 Alpha  occ. eigenvalues --   -0.92030  -0.91474  -0.91246  -0.90701  -0.90033
 Alpha  occ. eigenvalues --   -0.89336  -0.88658  -0.88189  -0.87079  -0.84957
 Alpha  occ. eigenvalues --   -0.81273  -0.80620  -0.79280  -0.78950  -0.78271
 Alpha  occ. eigenvalues --   -0.77641  -0.76932  -0.76613  -0.75253  -0.74984
 Alpha  occ. eigenvalues --   -0.74200  -0.72668  -0.72016  -0.71874  -0.69802
 Alpha  occ. eigenvalues --   -0.69274  -0.68426  -0.67529  -0.65840  -0.65561
 Alpha  occ. eigenvalues --   -0.65465  -0.64586  -0.63837  -0.63691  -0.62846
 Alpha  occ. eigenvalues --   -0.62714  -0.61871  -0.61493  -0.61094  -0.60972
 Alpha  occ. eigenvalues --   -0.60783  -0.60098  -0.59871  -0.59467  -0.59311
 Alpha  occ. eigenvalues --   -0.58974  -0.58656  -0.58502  -0.58227  -0.57365
 Alpha  occ. eigenvalues --   -0.57063  -0.56906  -0.56729  -0.56345  -0.55870
 Alpha  occ. eigenvalues --   -0.54491  -0.54189  -0.53683  -0.53510  -0.53042
 Alpha  occ. eigenvalues --   -0.52627  -0.52273  -0.51961  -0.51592  -0.51344
 Alpha  occ. eigenvalues --   -0.51116  -0.50787  -0.50302  -0.49518  -0.48844
 Alpha  occ. eigenvalues --   -0.48502  -0.48217  -0.46131  -0.45137  -0.44782
 Alpha  occ. eigenvalues --   -0.43932  -0.43594  -0.43461  -0.42148  -0.42009
 Alpha  occ. eigenvalues --   -0.41414  -0.40990  -0.40231  -0.37790  -0.34871
 Alpha virt. eigenvalues --   -0.09368  -0.08612  -0.07089  -0.06565  -0.06039
 Alpha virt. eigenvalues --   -0.05592  -0.04701  -0.04487  -0.03409  -0.03204
 Alpha virt. eigenvalues --   -0.03029  -0.02201  -0.00615   0.00407   0.00537

  Beta  occ. eigenvalues --  -88.33295 -88.32988 -14.29106 -14.24836 -10.18280
  Beta  occ. eigenvalues --  -10.18027 -10.16921 -10.16771 -10.16622 -10.15456
  Beta  occ. eigenvalues --  -10.14864 -10.14270 -10.14057 -10.13991 -10.13971
  Beta  occ. eigenvalues --  -10.13730 -10.12254 -10.12022 -10.12013 -10.11924
  Beta  occ. eigenvalues --  -10.11711 -10.11637 -10.11530 -10.11521 -10.11416
  Beta  occ. eigenvalues --  -10.11385 -10.11362 -10.11230 -10.11208 -10.11186
  Beta  occ. eigenvalues --  -10.09528 -10.09335 -10.09309 -10.09250 -10.09173
  Beta  occ. eigenvalues --  -10.09107 -10.08952 -10.08893 -10.08884 -10.08570
  Beta  occ. eigenvalues --   -7.92538  -7.92136  -5.94700  -5.94324  -5.94199
  Beta  occ. eigenvalues --   -5.93813  -5.93490  -5.93066  -1.15143  -1.11813
  Beta  occ. eigenvalues --   -1.05836  -1.02674  -1.02566  -1.01306  -1.00033
  Beta  occ. eigenvalues --   -0.98779  -0.97438  -0.96537  -0.93323  -0.92439
  Beta  occ. eigenvalues --   -0.91931  -0.91432  -0.91167  -0.90584  -0.89980
  Beta  occ. eigenvalues --   -0.89265  -0.88615  -0.88066  -0.86778  -0.84744
  Beta  occ. eigenvalues --   -0.81134  -0.80454  -0.79146  -0.78858  -0.78195
  Beta  occ. eigenvalues --   -0.77533  -0.76840  -0.76527  -0.75201  -0.74930
  Beta  occ. eigenvalues --   -0.74101  -0.72616  -0.71925  -0.71773  -0.69743
  Beta  occ. eigenvalues --   -0.69229  -0.68279  -0.67372  -0.65736  -0.65388
  Beta  occ. eigenvalues --   -0.65312  -0.64482  -0.63692  -0.63575  -0.62732
  Beta  occ. eigenvalues --   -0.62660  -0.61796  -0.61398  -0.61012  -0.60898
  Beta  occ. eigenvalues --   -0.60705  -0.59987  -0.59793  -0.59397  -0.59259
  Beta  occ. eigenvalues --   -0.58921  -0.58536  -0.58400  -0.58120  -0.57289
  Beta  occ. eigenvalues --   -0.56878  -0.56782  -0.56571  -0.56081  -0.55705
  Beta  occ. eigenvalues --   -0.54243  -0.54004  -0.53542  -0.53434  -0.52782
  Beta  occ. eigenvalues --   -0.52498  -0.51965  -0.51854  -0.51320  -0.51269
  Beta  occ. eigenvalues --   -0.50980  -0.50556  -0.50222  -0.49382  -0.48799
  Beta  occ. eigenvalues --   -0.47992  -0.47374  -0.45865  -0.44658  -0.44225
  Beta  occ. eigenvalues --   -0.43567  -0.43466  -0.43261  -0.41859  -0.41184
  Beta  occ. eigenvalues --   -0.40883  -0.40619  -0.38914  -0.31535
  Beta virt. eigenvalues --   -0.24367  -0.08881  -0.08208  -0.06740  -0.06299
  Beta virt. eigenvalues --   -0.05840  -0.05317  -0.04429  -0.04305  -0.03280
  Beta virt. eigenvalues --   -0.02888  -0.02514  -0.02054  -0.00342   0.00578

 Mulliken charges and spin densities:
               1          2
     1  C   -0.033483   0.021251
     2  C   -0.295252  -0.034006
     3  S    0.152584   0.070866
     4  C   -0.009280   0.108240
     5  C    0.025031  -0.011488
     6  C   -0.222148   0.043617
     7  C   -0.045457   0.012231
     8  C   -0.022975  -0.040039
     9  H    0.113320  -0.001700
    10  C   -0.109909   0.015041
    11  C   -0.095447  -0.013058
    12  C   -0.088657   0.028733
    13  C   -0.078941   0.016364
    14  H    0.164182  -0.000539
    15  H    0.149509   0.000684
    16  H    0.171715  -0.001418
    17  C   -0.127002   0.079853
    18  H    0.179935  -0.000302
    19  H    0.148076   0.000353
    20  H    0.144349   0.001016
    21  H    0.182911  -0.003742
    22  S    0.050474   0.067400
    23  N    0.013119   0.118484
    24  C   -0.058574  -0.011332
    25  C   -0.111315   0.030998
    26  C   -0.109832   0.031091
    27  C   -0.112182  -0.018927
    28  C   -0.112352  -0.020183
    29  C   -0.094100   0.040665
    30  H    0.168858  -0.001284
    31  H    0.157625  -0.001351
    32  H    0.129744   0.000890
    33  H    0.126912   0.001015
    34  H    0.130717  -0.002031
    35  C   -0.057566  -0.011263
    36  C   -0.115077   0.031854
    37  C   -0.104369   0.032103
    38  C   -0.112521  -0.019505
    39  C   -0.114092  -0.020406
    40  C   -0.096105   0.041876
    41  H    0.171137  -0.001308
    42  H    0.156978  -0.001789
    43  H    0.129732   0.000887
    44  H    0.122408   0.001074
    45  H    0.129078  -0.002088
    46  N    0.043224   0.228339
    47  C   -0.095486  -0.020038
    48  C   -0.091245   0.058342
    49  C   -0.090629   0.059299
    50  C   -0.114746  -0.035788
    51  C   -0.118434  -0.038539
    52  C   -0.078348   0.076913
    53  H    0.177468  -0.002447
    54  H    0.173838  -0.002038
    55  H    0.140563   0.001729
    56  H    0.134358   0.001898
    57  H    0.141526  -0.003806
    58  C   -0.072920  -0.019654
    59  C   -0.101367   0.059484
    60  C   -0.097556   0.059276
    61  C   -0.109581  -0.036885
    62  C   -0.110264  -0.037426
    63  C   -0.084153   0.077757
    64  H    0.174065  -0.002518
    65  H    0.167998  -0.002492
    66  H    0.139323   0.001763
    67  H    0.138852   0.001855
    68  H    0.141757  -0.003848
 Sum of Mulliken charges =   1.00000   1.00000

 Dipole moment (field-independent basis, Debye):
    X=             -5.5723    Y=              2.1729    Z=              0.1358  Tot=              5.9825
 Quadrupole moment (field-independent basis, Debye-Ang):
   XX=           -101.4540   YY=           -199.1448   ZZ=           -214.4567
   XY=             -4.1175   XZ=              3.6969   YZ=              7.0620

 Normal termination of Gaussian 16 at Fri Jan 29 14:09:01 2021.
