 Gaussian 16, Revision A.03,
 Gaussian 16:  EM64L-G16RevA.03 25-Dec-2016

 ----------------------------------------------------------------------
 #P LC-wHPBE/TZVP iop(3/107=0203600000, 3/108=0203600000) scf=(conver=6
 ,fermi,ndamp=35,noincfock,novaracc,vshift=500,xqc)
 ----------------------------------------------------------------------

 -------------
 H28 C36 S2 N2
 -------------
 Symbolic Z-matrix:
 Charge =  1 Multiplicity = 2

                         Standard orientation:
 ---------------------------------------------------------------------
 Center     Atomic      Atomic             Coordinates (Angstroms)
 Number     Number       Type             X           Y           Z
 ---------------------------------------------------------------------
      1          6           0       -2.604951   -0.985352    0.477595
      2          6           0       -1.595468   -1.227646    1.396897
      3         16           0       -0.459746   -2.557842    1.073663
      4          6           0       -1.509976   -0.467226    2.564163
      5          6           0        1.043777   -0.455726    0.021717
      6          6           0        1.038330   -1.682104    0.668307
      7          6           0       -3.557585    0.001751    0.697168
      8          6           0       -2.447111    0.539154    2.764444
      9          1           0       -0.596318    0.142670    4.605045
     10          6           0        2.238728    0.147647   -0.319798
     11          6           0        2.246539   -2.297832    0.961919
     12          6           0        3.442101   -1.694718    0.621166
     13          6           0        3.453096   -0.462920   -0.023837
     14          1           0        2.234263    1.106243   -0.827797
     15          1           0        2.253931   -3.248348    1.486346
     16          1           0        4.381679   -2.178238    0.866461
     17          6           0       -3.461673    0.764082    1.856276
     18          1           0       -2.646669   -1.585519   -0.424718
     19          1           0        0.106936    0.032641   -0.224382
     20          1           0       -2.404245    1.146243    3.663282
     21          1           0       -4.192893    1.542008    2.047877
     22         16           0       -0.233558   -0.817463    3.737465
     23          7           0        4.673686    0.159547   -0.368747
     24          6           0        5.732508   -0.612661   -0.896564
     25          6           0        7.045695   -0.377960   -0.499452
     26          6           0        5.475865   -1.622329   -1.819567
     27          6           0        8.078745   -1.133154   -1.024558
     28          6           0        6.512871   -2.384632   -2.326214
     29          6           0        7.820306   -2.143178   -1.936900
     30          1           0        7.251646    0.403669    0.224060
     31          1           0        4.454830   -1.807304   -2.136118
     32          1           0        9.097402   -0.936530   -0.704866
     33          1           0        6.295127   -3.169013   -3.044416
     34          1           0        8.632202   -2.738403   -2.341339
     35          6           0        4.837054    1.548147   -0.168533
     36          6           0        5.516065    2.321618   -1.105787
     37          6           0        4.319017    2.163542    0.967486
     38          6           0        5.679987    3.679833   -0.902534
     39          6           0        4.472338    3.525567    1.154010
     40          6           0        5.156657    4.292005    0.224805
     41          1           0        5.917204    1.848815   -1.995947
     42          1           0        3.791670    1.566068    1.703651
     43          1           0        6.213214    4.268058   -1.642948
     44          1           0        4.061647    3.989730    2.045325
     45          1           0        5.281223    5.358830    0.377899
     46          7           0       -4.591369    0.225236   -0.235572
     47          6           0       -4.996809    1.544618   -0.539366
     48          6           0       -6.345932    1.849462   -0.693639
     49          6           0       -4.053605    2.557013   -0.688173
     50          6           0       -6.738551    3.140118   -0.998819
     51          6           0       -4.455920    3.848924   -0.975713
     52          6           0       -5.798707    4.148587   -1.137139
     53          1           0       -7.085839    1.064984   -0.575406
     54          1           0       -2.999778    2.324624   -0.576668
     55          1           0       -7.794748    3.361033   -1.117399
     56          1           0       -3.707423    4.627077   -1.088273
     57          1           0       -6.110711    5.161215   -1.369943
     58          6           0       -5.228462   -0.872905   -0.859345
     59          6           0       -5.548183   -0.824769   -2.212595
     60          6           0       -5.541916   -2.014931   -0.129127
     61          6           0       -6.178047   -1.897088   -2.818017
     62          6           0       -6.155123   -3.090236   -0.746513
     63          6           0       -6.481192   -3.037227   -2.091754
     64          1           0       -5.300925    0.061617   -2.787177
     65          1           0       -5.299559   -2.056134    0.927579
     66          1           0       -6.421719   -1.844307   -3.874525
     67          1           0       -6.390696   -3.975287   -0.163884
     68          1           0       -6.967632   -3.879890   -2.571608
 ---------------------------------------------------------------------

 SCF Done:  E(ULC-wHPBE) =  -2293.12375793     A.U. after   33 cycles
 SCF Done:  E(ULC-wHPBE) =  -2293.12807746     a.u. after    7 cycles

 The electronic state is 2-A.
 Alpha  occ. eigenvalues --  -88.32389 -88.29477 -14.32803 -14.20535 -10.18693
 Alpha  occ. eigenvalues --  -10.18171 -10.18129 -10.16869 -10.14254 -10.14236
 Alpha  occ. eigenvalues --  -10.13643 -10.13607 -10.13590 -10.13547 -10.13364
 Alpha  occ. eigenvalues --  -10.13302 -10.13270 -10.13193 -10.12810 -10.12796
 Alpha  occ. eigenvalues --  -10.12724 -10.12584 -10.12572 -10.12517 -10.12512
 Alpha  occ. eigenvalues --  -10.10795 -10.10631 -10.09666 -10.09539 -10.09050
 Alpha  occ. eigenvalues --  -10.06590 -10.06536 -10.06296 -10.06275 -10.06224
 Alpha  occ. eigenvalues --  -10.06197 -10.06195 -10.06139 -10.05885 -10.05710
 Alpha  occ. eigenvalues --   -7.91488  -7.88771  -5.93670  -5.93163  -5.92555
 Alpha  occ. eigenvalues --   -5.90963  -5.90477  -5.89727  -1.17802  -1.08439
 Alpha  occ. eigenvalues --   -1.05139  -1.04109  -1.02577  -1.01400  -0.97153
 Alpha  occ. eigenvalues --   -0.97042  -0.95787  -0.94800  -0.93346  -0.93121
 Alpha  occ. eigenvalues --   -0.92602  -0.92491  -0.92134  -0.89806  -0.87488
 Alpha  occ. eigenvalues --   -0.86809  -0.86041  -0.85815  -0.85265  -0.82505
 Alpha  occ. eigenvalues --   -0.82169  -0.81165  -0.80012  -0.78908  -0.78472
 Alpha  occ. eigenvalues --   -0.76525  -0.75945  -0.75162  -0.73868  -0.73508
 Alpha  occ. eigenvalues --   -0.73335  -0.72341  -0.72219  -0.70209  -0.68727
 Alpha  occ. eigenvalues --   -0.67879  -0.67292  -0.67151  -0.66660  -0.65088
 Alpha  occ. eigenvalues --   -0.64707  -0.64105  -0.63930  -0.62770  -0.62540
 Alpha  occ. eigenvalues --   -0.62259  -0.62150  -0.61554  -0.61125  -0.60946
 Alpha  occ. eigenvalues --   -0.60745  -0.60099  -0.59407  -0.58745  -0.58414
 Alpha  occ. eigenvalues --   -0.58267  -0.57856  -0.57019  -0.56829  -0.56290
 Alpha  occ. eigenvalues --   -0.55942  -0.55294  -0.55136  -0.54949  -0.54512
 Alpha  occ. eigenvalues --   -0.54373  -0.54314  -0.54126  -0.53284  -0.52829
 Alpha  occ. eigenvalues --   -0.52361  -0.51931  -0.51380  -0.50989  -0.50012
 Alpha  occ. eigenvalues --   -0.49723  -0.48543  -0.47928  -0.47614  -0.47125
 Alpha  occ. eigenvalues --   -0.46768  -0.46596  -0.46456  -0.46391  -0.45344
 Alpha  occ. eigenvalues --   -0.45129  -0.43339  -0.43025  -0.41750  -0.39717
 Alpha  occ. eigenvalues --   -0.39212  -0.38886  -0.38724  -0.37970  -0.31945
 Alpha virt. eigenvalues --   -0.10344  -0.09936  -0.09757  -0.07811  -0.07299
 Alpha virt. eigenvalues --   -0.06633  -0.05602  -0.05160  -0.03023  -0.02256
 Alpha virt. eigenvalues --   -0.01787  -0.00889  -0.00827   0.00123   0.00952

  Beta  occ. eigenvalues --  -88.32344 -88.29477 -14.32010 -14.20534 -10.18691
  Beta  occ. eigenvalues --  -10.18230 -10.18187 -10.16683 -10.14127 -10.14114
  Beta  occ. eigenvalues --  -10.13507 -10.13472 -10.13459 -10.13417 -10.13352
  Beta  occ. eigenvalues --  -10.13313 -10.13300 -10.13234 -10.12812 -10.12670
  Beta  occ. eigenvalues --  -10.12639 -10.12612 -10.12602 -10.12575 -10.12546
  Beta  occ. eigenvalues --  -10.10795 -10.10631 -10.09668 -10.09534 -10.09043
  Beta  occ. eigenvalues --  -10.06590 -10.06536 -10.06296 -10.06275 -10.06224
  Beta  occ. eigenvalues --  -10.06197 -10.06195 -10.06138 -10.05885 -10.05709
  Beta  occ. eigenvalues --   -7.91442  -7.88771  -5.93643  -5.93134  -5.92429
  Beta  occ. eigenvalues --   -5.90963  -5.90478  -5.89727  -1.16797  -1.08438
  Beta  occ. eigenvalues --   -1.04896  -1.03930  -1.02343  -1.01312  -0.97042
  Beta  occ. eigenvalues --   -0.96922  -0.95751  -0.94625  -0.93209  -0.92987
  Beta  occ. eigenvalues --   -0.92585  -0.92356  -0.91992  -0.89427  -0.87440
  Beta  occ. eigenvalues --   -0.86805  -0.85945  -0.85813  -0.85208  -0.82277
  Beta  occ. eigenvalues --   -0.82110  -0.80965  -0.79752  -0.78746  -0.78341
  Beta  occ. eigenvalues --   -0.76484  -0.75818  -0.75132  -0.73858  -0.73360
  Beta  occ. eigenvalues --   -0.73188  -0.72317  -0.72212  -0.70174  -0.68573
  Beta  occ. eigenvalues --   -0.67586  -0.67144  -0.66678  -0.66643  -0.64963
  Beta  occ. eigenvalues --   -0.64552  -0.64053  -0.63869  -0.62681  -0.62493
  Beta  occ. eigenvalues --   -0.62115  -0.62025  -0.61476  -0.61025  -0.60904
  Beta  occ. eigenvalues --   -0.60672  -0.60094  -0.59089  -0.58528  -0.58226
  Beta  occ. eigenvalues --   -0.57940  -0.57434  -0.57015  -0.56742  -0.56249
  Beta  occ. eigenvalues --   -0.55920  -0.55219  -0.54859  -0.54552  -0.54474
  Beta  occ. eigenvalues --   -0.54298  -0.54097  -0.54063  -0.53059  -0.52730
  Beta  occ. eigenvalues --   -0.52068  -0.51552  -0.51269  -0.50973  -0.49955
  Beta  occ. eigenvalues --   -0.49031  -0.48476  -0.47915  -0.47409  -0.46723
  Beta  occ. eigenvalues --   -0.46548  -0.46349  -0.46237  -0.45740  -0.44791
  Beta  occ. eigenvalues --   -0.44761  -0.43330  -0.42561  -0.39728  -0.39420
  Beta  occ. eigenvalues --   -0.38994  -0.38717  -0.37958  -0.31920
  Beta virt. eigenvalues --   -0.23586  -0.09636  -0.09601  -0.09151  -0.07327
  Beta virt. eigenvalues --   -0.06871  -0.06514  -0.05194  -0.04409  -0.03016
  Beta virt. eigenvalues --   -0.02241  -0.01713  -0.00861  -0.00770   0.00199

 Mulliken charges and spin densities:
               1          2
     1  C   -0.051677   0.002657
     2  C   -0.273578  -0.002380
     3  S    0.164971   0.091337
     4  C   -0.017278   0.008835
     5  C    0.033441  -0.051436
     6  C   -0.216521   0.130611
     7  C   -0.045333  -0.001653
     8  C   -0.029800  -0.002599
     9  H    0.108803  -0.000258
    10  C   -0.091387   0.083667
    11  C   -0.093322  -0.048126
    12  C   -0.073007   0.086403
    13  C   -0.084106   0.019161
    14  H    0.175845  -0.003610
    15  H    0.161744   0.001970
    16  H    0.178016  -0.003937
    17  C   -0.132758   0.006215
    18  H    0.165511   0.000320
    19  H    0.182578   0.002110
    20  H    0.126574   0.000232
    21  H    0.169123  -0.000279
    22  S   -0.039939  -0.000338
    23  N    0.083571   0.353427
    24  C   -0.072404  -0.026105
    25  C   -0.095778   0.094314
    26  C   -0.092353   0.094773
    27  C   -0.107014  -0.056411
    28  C   -0.107579  -0.058876
    29  C   -0.069980   0.123474
    30  H    0.182849  -0.003918
    31  H    0.179482  -0.003973
    32  H    0.147404   0.002712
    33  H    0.147175   0.002909
    34  H    0.150305  -0.006139
    35  C   -0.072097  -0.027086
    36  C   -0.099447   0.095672
    37  C   -0.086426   0.096292
    38  C   -0.107153  -0.057358
    39  C   -0.109563  -0.059602
    40  C   -0.070333   0.124825
    41  H    0.183487  -0.003960
    42  H    0.182961  -0.004075
    43  H    0.147253   0.002717
    44  H    0.145405   0.002956
    45  H    0.149554  -0.006210
    46  N   -0.010181   0.000517
    47  C   -0.079898   0.000015
    48  C   -0.100391   0.000013
    49  C   -0.099242   0.000000
    50  C   -0.115371   0.000018
    51  C   -0.117191  -0.000050
    52  C   -0.095293   0.000090
    53  H    0.161081  -0.000001
    54  H    0.139147   0.000028
    55  H    0.120840   0.000001
    56  H    0.106753   0.000001
    57  H    0.118373  -0.000003
    58  C   -0.061605  -0.000065
    59  C   -0.114465   0.000091
    60  C   -0.112829   0.000017
    61  C   -0.110896  -0.000038
    62  C   -0.111383   0.000031
    63  C   -0.101412   0.000080
    64  H    0.154822  -0.000004
    65  H    0.147457   0.000002
    66  H    0.117805   0.000003
    67  H    0.117562  -0.000001
    68  H    0.119100  -0.000004
 Sum of Mulliken charges =   1.00000   1.00000

 Dipole moment (field-independent basis, Debye):
    X=             15.2075    Y=              2.2658    Z=             -1.0945  Tot=             15.4142
 Quadrupole moment (field-independent basis, Debye-Ang):
   XX=            -90.1444   YY=           -198.5318   ZZ=           -221.9581
   XY=              2.1071   XZ=            -13.6278   YZ=             10.1749

 Normal termination of Gaussian 16 at Wed Jan 27 23:27:03 2021.
