 Gaussian 16, Revision A.03,
 Gaussian 16:  EM64L-G16RevA.03 25-Dec-2016

 ----------------------------------------------------------------------
 #P LC-wHPBE/TZVP iop(3/107=0221900000, 3/108=0221900000) scf=(conver=6
 ,fermi,ndamp=35,noincfock,novaracc,vshift=500,xqc)
 ----------------------------------------------------------------------

 -------------
 H28 C36 S2 N2
 -------------
 Symbolic Z-matrix:
 Charge =  1 Multiplicity = 2

                         Standard orientation:
 ---------------------------------------------------------------------
 Center     Atomic      Atomic             Coordinates (Angstroms)
 Number     Number       Type             X           Y           Z
 ---------------------------------------------------------------------
      1          6           0       -2.604951   -0.985352    0.477595
      2          6           0       -1.595468   -1.227646    1.396897
      3         16           0       -0.459746   -2.557842    1.073663
      4          6           0       -1.509976   -0.467226    2.564163
      5          6           0        1.043777   -0.455726    0.021717
      6          6           0        1.038330   -1.682104    0.668307
      7          6           0       -3.557585    0.001751    0.697168
      8          6           0       -2.447111    0.539154    2.764444
      9          1           0       -0.596318    0.142670    4.605045
     10          6           0        2.238728    0.147647   -0.319798
     11          6           0        2.246539   -2.297832    0.961919
     12          6           0        3.442101   -1.694718    0.621166
     13          6           0        3.453096   -0.462920   -0.023837
     14          1           0        2.234263    1.106243   -0.827797
     15          1           0        2.253931   -3.248348    1.486346
     16          1           0        4.381679   -2.178238    0.866461
     17          6           0       -3.461673    0.764082    1.856276
     18          1           0       -2.646669   -1.585519   -0.424718
     19          1           0        0.106936    0.032641   -0.224382
     20          1           0       -2.404245    1.146243    3.663282
     21          1           0       -4.192893    1.542008    2.047877
     22         16           0       -0.233558   -0.817463    3.737465
     23          7           0        4.673686    0.159547   -0.368747
     24          6           0        5.732508   -0.612661   -0.896564
     25          6           0        7.045695   -0.377960   -0.499452
     26          6           0        5.475865   -1.622329   -1.819567
     27          6           0        8.078745   -1.133154   -1.024558
     28          6           0        6.512871   -2.384632   -2.326214
     29          6           0        7.820306   -2.143178   -1.936900
     30          1           0        7.251646    0.403669    0.224060
     31          1           0        4.454830   -1.807304   -2.136118
     32          1           0        9.097402   -0.936530   -0.704866
     33          1           0        6.295127   -3.169013   -3.044416
     34          1           0        8.632202   -2.738403   -2.341339
     35          6           0        4.837054    1.548147   -0.168533
     36          6           0        5.516065    2.321618   -1.105787
     37          6           0        4.319017    2.163542    0.967486
     38          6           0        5.679987    3.679833   -0.902534
     39          6           0        4.472338    3.525567    1.154010
     40          6           0        5.156657    4.292005    0.224805
     41          1           0        5.917204    1.848815   -1.995947
     42          1           0        3.791670    1.566068    1.703651
     43          1           0        6.213214    4.268058   -1.642948
     44          1           0        4.061647    3.989730    2.045325
     45          1           0        5.281223    5.358830    0.377899
     46          7           0       -4.591369    0.225236   -0.235572
     47          6           0       -4.996809    1.544618   -0.539366
     48          6           0       -6.345932    1.849462   -0.693639
     49          6           0       -4.053605    2.557013   -0.688173
     50          6           0       -6.738551    3.140118   -0.998819
     51          6           0       -4.455920    3.848924   -0.975713
     52          6           0       -5.798707    4.148587   -1.137139
     53          1           0       -7.085839    1.064984   -0.575406
     54          1           0       -2.999778    2.324624   -0.576668
     55          1           0       -7.794748    3.361033   -1.117399
     56          1           0       -3.707423    4.627077   -1.088273
     57          1           0       -6.110711    5.161215   -1.369943
     58          6           0       -5.228462   -0.872905   -0.859345
     59          6           0       -5.548183   -0.824769   -2.212595
     60          6           0       -5.541916   -2.014931   -0.129127
     61          6           0       -6.178047   -1.897088   -2.818017
     62          6           0       -6.155123   -3.090236   -0.746513
     63          6           0       -6.481192   -3.037227   -2.091754
     64          1           0       -5.300925    0.061617   -2.787177
     65          1           0       -5.299559   -2.056134    0.927579
     66          1           0       -6.421719   -1.844307   -3.874525
     67          1           0       -6.390696   -3.975287   -0.163884
     68          1           0       -6.967632   -3.879890   -2.571608
 ---------------------------------------------------------------------

 SCF Done:  E(ULC-wHPBE) =  -2293.15947664     A.U. after   33 cycles
 SCF Done:  E(ULC-wHPBE) =  -2293.15947786     a.u. after    2 cycles

 The electronic state is 2-A.
 Alpha  occ. eigenvalues --  -88.33338 -88.33039 -14.29611 -14.25120 -10.18291
 Alpha  occ. eigenvalues --  -10.18197 -10.16916 -10.16742 -10.16593 -10.15495
 Alpha  occ. eigenvalues --  -10.14944 -10.14396 -10.14045 -10.14034 -10.13972
 Alpha  occ. eigenvalues --  -10.13732 -10.12349 -10.12114 -10.12103 -10.12015
 Alpha  occ. eigenvalues --  -10.11729 -10.11612 -10.11543 -10.11504 -10.11455
 Alpha  occ. eigenvalues --  -10.11394 -10.11364 -10.11302 -10.11277 -10.11252
 Alpha  occ. eigenvalues --  -10.09596 -10.09400 -10.09318 -10.09312 -10.09177
 Alpha  occ. eigenvalues --  -10.09172 -10.08964 -10.08955 -10.08888 -10.08640
 Alpha  occ. eigenvalues --   -7.92581  -7.92188  -5.94731  -5.94364  -5.94229
 Alpha  occ. eigenvalues --   -5.93851  -5.93589  -5.93176  -1.15755  -1.12145
 Alpha  occ. eigenvalues --   -1.06027  -1.02792  -1.02692  -1.01471  -1.00112
 Alpha  occ. eigenvalues --   -0.98894  -0.97656  -0.96675  -0.93455  -0.92564
 Alpha  occ. eigenvalues --   -0.92042  -0.91496  -0.91257  -0.90712  -0.90056
 Alpha  occ. eigenvalues --   -0.89357  -0.88680  -0.88208  -0.87092  -0.84977
 Alpha  occ. eigenvalues --   -0.81284  -0.80630  -0.79293  -0.78969  -0.78287
 Alpha  occ. eigenvalues --   -0.77650  -0.76945  -0.76632  -0.75270  -0.75005
 Alpha  occ. eigenvalues --   -0.74213  -0.72688  -0.72024  -0.71884  -0.69821
 Alpha  occ. eigenvalues --   -0.69294  -0.68435  -0.67538  -0.65850  -0.65568
 Alpha  occ. eigenvalues --   -0.65480  -0.64604  -0.63845  -0.63706  -0.62866
 Alpha  occ. eigenvalues --   -0.62723  -0.61879  -0.61508  -0.61108  -0.60984
 Alpha  occ. eigenvalues --   -0.60792  -0.60111  -0.59884  -0.59476  -0.59319
 Alpha  occ. eigenvalues --   -0.58989  -0.58670  -0.58519  -0.58242  -0.57382
 Alpha  occ. eigenvalues --   -0.57071  -0.56922  -0.56742  -0.56352  -0.55884
 Alpha  occ. eigenvalues --   -0.54502  -0.54207  -0.53702  -0.53516  -0.53048
 Alpha  occ. eigenvalues --   -0.52635  -0.52280  -0.51975  -0.51602  -0.51350
 Alpha  occ. eigenvalues --   -0.51128  -0.50800  -0.50319  -0.49535  -0.48861
 Alpha  occ. eigenvalues --   -0.48507  -0.48231  -0.46140  -0.45148  -0.44784
 Alpha  occ. eigenvalues --   -0.43935  -0.43607  -0.43463  -0.42163  -0.42013
 Alpha  occ. eigenvalues --   -0.41428  -0.41004  -0.40243  -0.37791  -0.34886
 Alpha virt. eigenvalues --   -0.09360  -0.08602  -0.07077  -0.06563  -0.06032
 Alpha virt. eigenvalues --   -0.05586  -0.04689  -0.04487  -0.03404  -0.03193
 Alpha virt. eigenvalues --   -0.03023  -0.02201  -0.00612   0.00413   0.00545

  Beta  occ. eigenvalues --  -88.33308 -88.33006 -14.29113 -14.24862 -10.18292
  Beta  occ. eigenvalues --  -10.18041 -10.16935 -10.16782 -10.16632 -10.15480
  Beta  occ. eigenvalues --  -10.14886 -10.14283 -10.14070 -10.14004 -10.13994
  Beta  occ. eigenvalues --  -10.13754 -10.12265 -10.12032 -10.12023 -10.11934
  Beta  occ. eigenvalues --  -10.11732 -10.11649 -10.11551 -10.11532 -10.11427
  Beta  occ. eigenvalues --  -10.11397 -10.11373 -10.11252 -10.11218 -10.11208
  Beta  occ. eigenvalues --  -10.09551 -10.09358 -10.09332 -10.09274 -10.09195
  Beta  occ. eigenvalues --  -10.09131 -10.08974 -10.08916 -10.08907 -10.08593
  Beta  occ. eigenvalues --   -7.92551  -7.92155  -5.94713  -5.94342  -5.94212
  Beta  occ. eigenvalues --   -5.93831  -5.93503  -5.93084  -1.15153  -1.11839
  Beta  occ. eigenvalues --   -1.05851  -1.02685  -1.02587  -1.01318  -1.00057
  Beta  occ. eigenvalues --   -0.98801  -0.97454  -0.96553  -0.93336  -0.92454
  Beta  occ. eigenvalues --   -0.91942  -0.91454  -0.91178  -0.90596  -0.90002
  Beta  occ. eigenvalues --   -0.89287  -0.88637  -0.88085  -0.86791  -0.84763
  Beta  occ. eigenvalues --   -0.81145  -0.80464  -0.79159  -0.78876  -0.78211
  Beta  occ. eigenvalues --   -0.77542  -0.76853  -0.76546  -0.75219  -0.74951
  Beta  occ. eigenvalues --   -0.74113  -0.72636  -0.71933  -0.71783  -0.69762
  Beta  occ. eigenvalues --   -0.69249  -0.68288  -0.67380  -0.65746  -0.65402
  Beta  occ. eigenvalues --   -0.65319  -0.64500  -0.63705  -0.63585  -0.62750
  Beta  occ. eigenvalues --   -0.62669  -0.61803  -0.61413  -0.61024  -0.60910
  Beta  occ. eigenvalues --   -0.60714  -0.60001  -0.59804  -0.59407  -0.59268
  Beta  occ. eigenvalues --   -0.58936  -0.58551  -0.58416  -0.58134  -0.57306
  Beta  occ. eigenvalues --   -0.56893  -0.56794  -0.56581  -0.56088  -0.55719
  Beta  occ. eigenvalues --   -0.54254  -0.54021  -0.53560  -0.53440  -0.52789
  Beta  occ. eigenvalues --   -0.52506  -0.51972  -0.51868  -0.51331  -0.51275
  Beta  occ. eigenvalues --   -0.50994  -0.50565  -0.50239  -0.49399  -0.48815
  Beta  occ. eigenvalues --   -0.48006  -0.47379  -0.45873  -0.44669  -0.44228
  Beta  occ. eigenvalues --   -0.43577  -0.43472  -0.43263  -0.41873  -0.41198
  Beta  occ. eigenvalues --   -0.40894  -0.40626  -0.38921  -0.31538
  Beta virt. eigenvalues --   -0.24369  -0.08872  -0.08199  -0.06729  -0.06296
  Beta virt. eigenvalues --   -0.05834  -0.05310  -0.04417  -0.04305  -0.03274
  Beta virt. eigenvalues --   -0.02883  -0.02502  -0.02053  -0.00337   0.00586

 Mulliken charges and spin densities:
               1          2
     1  C   -0.033527   0.021190
     2  C   -0.295296  -0.034020
     3  S    0.152684   0.070952
     4  C   -0.009318   0.108210
     5  C    0.024993  -0.011552
     6  C   -0.222170   0.043759
     7  C   -0.045485   0.012188
     8  C   -0.023013  -0.040056
     9  H    0.113312  -0.001698
    10  C   -0.109898   0.015108
    11  C   -0.095475  -0.013122
    12  C   -0.088659   0.028817
    13  C   -0.078973   0.016386
    14  H    0.164255  -0.000541
    15  H    0.149572   0.000685
    16  H    0.171779  -0.001422
    17  C   -0.127022   0.079832
    18  H    0.179984  -0.000298
    19  H    0.148162   0.000356
    20  H    0.144373   0.001016
    21  H    0.182950  -0.003740
    22  S    0.050387   0.067300
    23  N    0.013110   0.118819
    24  C   -0.058589  -0.011381
    25  C   -0.111331   0.031098
    26  C   -0.109851   0.031191
    27  C   -0.112211  -0.019001
    28  C   -0.112382  -0.020261
    29  C   -0.094119   0.040794
    30  H    0.168926  -0.001288
    31  H    0.157703  -0.001355
    32  H    0.129806   0.000893
    33  H    0.126977   0.001019
    34  H    0.130782  -0.002037
    35  C   -0.057581  -0.011312
    36  C   -0.115091   0.031956
    37  C   -0.104388   0.032206
    38  C   -0.112549  -0.019581
    39  C   -0.114122  -0.020485
    40  C   -0.096122   0.042007
    41  H    0.171203  -0.001312
    42  H    0.157061  -0.001793
    43  H    0.129793   0.000890
    44  H    0.122477   0.001078
    45  H    0.129144  -0.002095
    46  N    0.043070   0.228093
    47  C   -0.095464  -0.020057
    48  C   -0.091291   0.058294
    49  C   -0.090683   0.059250
    50  C   -0.114784  -0.035780
    51  C   -0.118469  -0.038531
    52  C   -0.078420   0.076845
    53  H    0.177495  -0.002444
    54  H    0.173838  -0.002035
    55  H    0.140574   0.001728
    56  H    0.134361   0.001897
    57  H    0.141534  -0.003803
    58  C   -0.072905  -0.019677
    59  C   -0.101418   0.059436
    60  C   -0.097614   0.059228
    61  C   -0.109621  -0.036879
    62  C   -0.110303  -0.037419
    63  C   -0.084223   0.077688
    64  H    0.174088  -0.002516
    65  H    0.168016  -0.002489
    66  H    0.139332   0.001762
    67  H    0.138861   0.001854
    68  H    0.141765  -0.003844
 Sum of Mulliken charges =   1.00000   1.00000

 Dipole moment (field-independent basis, Debye):
    X=             -5.5452    Y=              2.1728    Z=              0.1347  Tot=              5.9572
 Quadrupole moment (field-independent basis, Debye-Ang):
   XX=           -101.4439   YY=           -199.1422   ZZ=           -214.4644
   XY=             -4.1102   XZ=              3.6729   YZ=              7.0663

 Normal termination of Gaussian 16 at Wed Jan 27 11:10:32 2021.
