 Gaussian 16, Revision A.03,
 Gaussian 16:  EM64L-G16RevA.03 25-Dec-2016

 ----------------------------------------------------------------------
 #P LC-wHPBE/TZVP iop(3/107=0328100000, 3/108=0328100000) scf=(conver=6
 ,fermi,ndamp=35,noincfock,novaracc,vshift=500,xqc)
 ----------------------------------------------------------------------

 -------------
 H28 C36 S2 N2
 -------------
 Symbolic Z-matrix:
 Charge =  0 Multiplicity = 1

                         Standard orientation:
 ---------------------------------------------------------------------
 Center     Atomic      Atomic             Coordinates (Angstroms)
 Number     Number       Type             X           Y           Z
 ---------------------------------------------------------------------
      1          6           0       -2.604951   -0.985352    0.477595
      2          6           0       -1.595468   -1.227646    1.396897
      3         16           0       -0.459746   -2.557842    1.073663
      4          6           0       -1.509976   -0.467226    2.564163
      5          6           0        1.043777   -0.455726    0.021717
      6          6           0        1.038330   -1.682104    0.668307
      7          6           0       -3.557585    0.001751    0.697168
      8          6           0       -2.447111    0.539154    2.764444
      9          1           0       -0.596318    0.142670    4.605045
     10          6           0        2.238728    0.147647   -0.319798
     11          6           0        2.246539   -2.297832    0.961919
     12          6           0        3.442101   -1.694718    0.621166
     13          6           0        3.453096   -0.462920   -0.023837
     14          1           0        2.234263    1.106243   -0.827797
     15          1           0        2.253931   -3.248348    1.486346
     16          1           0        4.381679   -2.178238    0.866461
     17          6           0       -3.461673    0.764082    1.856276
     18          1           0       -2.646669   -1.585519   -0.424718
     19          1           0        0.106936    0.032641   -0.224382
     20          1           0       -2.404245    1.146243    3.663282
     21          1           0       -4.192893    1.542008    2.047877
     22         16           0       -0.233558   -0.817463    3.737465
     23          7           0        4.673686    0.159547   -0.368747
     24          6           0        5.732508   -0.612661   -0.896564
     25          6           0        7.045695   -0.377960   -0.499452
     26          6           0        5.475865   -1.622329   -1.819567
     27          6           0        8.078745   -1.133154   -1.024558
     28          6           0        6.512871   -2.384632   -2.326214
     29          6           0        7.820306   -2.143178   -1.936900
     30          1           0        7.251646    0.403669    0.224060
     31          1           0        4.454830   -1.807304   -2.136118
     32          1           0        9.097402   -0.936530   -0.704866
     33          1           0        6.295127   -3.169013   -3.044416
     34          1           0        8.632202   -2.738403   -2.341339
     35          6           0        4.837054    1.548147   -0.168533
     36          6           0        5.516065    2.321618   -1.105787
     37          6           0        4.319017    2.163542    0.967486
     38          6           0        5.679987    3.679833   -0.902534
     39          6           0        4.472338    3.525567    1.154010
     40          6           0        5.156657    4.292005    0.224805
     41          1           0        5.917204    1.848815   -1.995947
     42          1           0        3.791670    1.566068    1.703651
     43          1           0        6.213214    4.268058   -1.642948
     44          1           0        4.061647    3.989730    2.045325
     45          1           0        5.281223    5.358830    0.377899
     46          7           0       -4.591369    0.225236   -0.235572
     47          6           0       -4.996809    1.544618   -0.539366
     48          6           0       -6.345932    1.849462   -0.693639
     49          6           0       -4.053605    2.557013   -0.688173
     50          6           0       -6.738551    3.140118   -0.998819
     51          6           0       -4.455920    3.848924   -0.975713
     52          6           0       -5.798707    4.148587   -1.137139
     53          1           0       -7.085839    1.064984   -0.575406
     54          1           0       -2.999778    2.324624   -0.576668
     55          1           0       -7.794748    3.361033   -1.117399
     56          1           0       -3.707423    4.627077   -1.088273
     57          1           0       -6.110711    5.161215   -1.369943
     58          6           0       -5.228462   -0.872905   -0.859345
     59          6           0       -5.548183   -0.824769   -2.212595
     60          6           0       -5.541916   -2.014931   -0.129127
     61          6           0       -6.178047   -1.897088   -2.818017
     62          6           0       -6.155123   -3.090236   -0.746513
     63          6           0       -6.481192   -3.037227   -2.091754
     64          1           0       -5.300925    0.061617   -2.787177
     65          1           0       -5.299559   -2.056134    0.927579
     66          1           0       -6.421719   -1.844307   -3.874525
     67          1           0       -6.390696   -3.975287   -0.163884
     68          1           0       -6.967632   -3.879890   -2.571608
 ---------------------------------------------------------------------

 SCF Done:  E(RLC-wHPBE) =  -2293.58959611     A.U. after   16 cycles

 The electronic state is 1-A.
 Alpha  occ. eigenvalues --  -88.27728 -88.27433 -14.20295 -14.19709 -10.12088
 Alpha  occ. eigenvalues --  -10.11990 -10.11779 -10.11636 -10.11418 -10.11284
 Alpha  occ. eigenvalues --  -10.11264 -10.11237 -10.10326 -10.08689 -10.08243
 Alpha  occ. eigenvalues --  -10.08236 -10.07618 -10.07590 -10.07494 -10.07449
 Alpha  occ. eigenvalues --  -10.07439 -10.07429 -10.07325 -10.07256 -10.07161
 Alpha  occ. eigenvalues --  -10.07156 -10.07151 -10.07142 -10.07132 -10.07130
 Alpha  occ. eigenvalues --  -10.07122 -10.07107 -10.07071 -10.06921 -10.06788
 Alpha  occ. eigenvalues --  -10.06778 -10.06772 -10.06767 -10.06625 -10.06601
 Alpha  occ. eigenvalues --   -7.87183  -7.86809  -5.89142  -5.88791  -5.88622
 Alpha  occ. eigenvalues --   -5.88261  -5.87835  -5.87439  -1.08823  -1.08220
 Alpha  occ. eigenvalues --   -1.00538  -0.98551  -0.98285  -0.97861  -0.96810
 Alpha  occ. eigenvalues --   -0.96096  -0.92238  -0.91201  -0.88348  -0.87829
 Alpha  occ. eigenvalues --   -0.87616  -0.87060  -0.86524  -0.86494  -0.86282
 Alpha  occ. eigenvalues --   -0.86099  -0.85213  -0.83850  -0.81453  -0.79947
 Alpha  occ. eigenvalues --   -0.75033  -0.74483  -0.74221  -0.73695  -0.72713
 Alpha  occ. eigenvalues --   -0.72321  -0.71945  -0.71516  -0.71357  -0.70567
 Alpha  occ. eigenvalues --   -0.68642  -0.67938  -0.65657  -0.65379  -0.65152
 Alpha  occ. eigenvalues --   -0.64566  -0.61598  -0.60944  -0.60559  -0.59152
 Alpha  occ. eigenvalues --   -0.58961  -0.58396  -0.58220  -0.57652  -0.56950
 Alpha  occ. eigenvalues --   -0.56302  -0.56016  -0.55838  -0.55007  -0.54830
 Alpha  occ. eigenvalues --   -0.54512  -0.54110  -0.53902  -0.53798  -0.53351
 Alpha  occ. eigenvalues --   -0.53133  -0.52991  -0.52845  -0.52589  -0.51752
 Alpha  occ. eigenvalues --   -0.51111  -0.50032  -0.49956  -0.49551  -0.49406
 Alpha  occ. eigenvalues --   -0.49136  -0.48728  -0.46988  -0.46771  -0.46295
 Alpha  occ. eigenvalues --   -0.45989  -0.45816  -0.45523  -0.44900  -0.44749
 Alpha  occ. eigenvalues --   -0.44352  -0.44217  -0.43981  -0.43604  -0.42954
 Alpha  occ. eigenvalues --   -0.41656  -0.39906  -0.38443  -0.36846  -0.36583
 Alpha  occ. eigenvalues --   -0.36298  -0.36158  -0.35641  -0.35432  -0.35015
 Alpha  occ. eigenvalues --   -0.35000  -0.33071  -0.32201  -0.27436  -0.26935
 Alpha virt. eigenvalues --    0.03273   0.04034   0.04644   0.04850   0.04933
 Alpha virt. eigenvalues --    0.05252   0.06247   0.07145   0.07358   0.07548
 Alpha virt. eigenvalues --    0.08994   0.09333   0.10177   0.11771   0.12338

 Mulliken charges:
               1
     1  C   -0.066393
     2  C   -0.278638
     3  S    0.080554
     4  C   -0.036411
     5  C    0.004745
     6  C   -0.222280
     7  C   -0.041880
     8  C   -0.037402
     9  H    0.088303
    10  C   -0.128971
    11  C   -0.114842
    12  C   -0.111791
    13  C   -0.081576
    14  H    0.167710
    15  H    0.142541
    16  H    0.168524
    17  C   -0.158616
    18  H    0.180096
    19  H    0.162870
    20  H    0.131382
    21  H    0.175769
    22  S   -0.017927
    23  N   -0.053779
    24  C   -0.055010
    25  C   -0.135536
    26  C   -0.130996
    27  C   -0.123364
    28  C   -0.123405
    29  C   -0.129223
    30  H    0.174411
    31  H    0.172961
    32  H    0.124209
    33  H    0.124787
    34  H    0.123405
    35  C   -0.054273
    36  C   -0.139686
    37  C   -0.126903
    38  C   -0.123295
    39  C   -0.125194
    40  C   -0.129784
    41  H    0.174745
    42  H    0.177730
    43  H    0.124036
    44  H    0.123321
    45  H    0.122753
    46  N   -0.053464
    47  C   -0.083324
    48  C   -0.122744
    49  C   -0.119299
    50  C   -0.127472
    51  C   -0.130544
    52  C   -0.122791
    53  H    0.174851
    54  H    0.180155
    55  H    0.125870
    56  H    0.125045
    57  H    0.124982
    58  C   -0.063256
    59  C   -0.130269
    60  C   -0.125418
    61  C   -0.121644
    62  C   -0.121823
    63  C   -0.127663
    64  H    0.172628
    65  H    0.171443
    66  H    0.125694
    67  H    0.126318
    68  H    0.125047
 Sum of Mulliken charges =  -0.00000

 Dipole moment (field-independent basis, Debye):
    X=             -0.9897    Y=              2.1657    Z=             -0.1665  Tot=              2.3869
 Quadrupole moment (field-independent basis, Debye-Ang):
   XX=           -226.4999   YY=           -234.1856   ZZ=           -237.5910
   XY=             -1.9168   XZ=             -0.3675   YZ=              7.4334

 Normal termination of Gaussian 16 at Wed Jan 27 11:42:25 2021.
