 Gaussian 16, Revision A.03,
 Gaussian 16:  EM64L-G16RevA.03 25-Dec-2016

 ----------------------------------------------------------------------
 #P LC-wHPBE/TZVP iop(3/107=0237400000, 3/108=0237400000) scf=(conver=6
 ,fermi,ndamp=35,noincfock,novaracc,vshift=500,xqc)
 ----------------------------------------------------------------------

 -------------
 H28 C36 S2 N2
 -------------
 Symbolic Z-matrix:
 Charge =  1 Multiplicity = 2

                         Standard orientation:
 ---------------------------------------------------------------------
 Center     Atomic      Atomic             Coordinates (Angstroms)
 Number     Number       Type             X           Y           Z
 ---------------------------------------------------------------------
      1          6           0       -2.604951   -0.985352    0.477595
      2          6           0       -1.595468   -1.227646    1.396897
      3         16           0       -0.459746   -2.557842    1.073663
      4          6           0       -1.509976   -0.467226    2.564163
      5          6           0        1.043777   -0.455726    0.021717
      6          6           0        1.038330   -1.682104    0.668307
      7          6           0       -3.557585    0.001751    0.697168
      8          6           0       -2.447111    0.539154    2.764444
      9          1           0       -0.596318    0.142670    4.605045
     10          6           0        2.238728    0.147647   -0.319798
     11          6           0        2.246539   -2.297832    0.961919
     12          6           0        3.442101   -1.694718    0.621166
     13          6           0        3.453096   -0.462920   -0.023837
     14          1           0        2.234263    1.106243   -0.827797
     15          1           0        2.253931   -3.248348    1.486346
     16          1           0        4.381679   -2.178238    0.866461
     17          6           0       -3.461673    0.764082    1.856276
     18          1           0       -2.646669   -1.585519   -0.424718
     19          1           0        0.106936    0.032641   -0.224382
     20          1           0       -2.404245    1.146243    3.663282
     21          1           0       -4.192893    1.542008    2.047877
     22         16           0       -0.233558   -0.817463    3.737465
     23          7           0        4.673686    0.159547   -0.368747
     24          6           0        5.732508   -0.612661   -0.896564
     25          6           0        7.045695   -0.377960   -0.499452
     26          6           0        5.475865   -1.622329   -1.819567
     27          6           0        8.078745   -1.133154   -1.024558
     28          6           0        6.512871   -2.384632   -2.326214
     29          6           0        7.820306   -2.143178   -1.936900
     30          1           0        7.251646    0.403669    0.224060
     31          1           0        4.454830   -1.807304   -2.136118
     32          1           0        9.097402   -0.936530   -0.704866
     33          1           0        6.295127   -3.169013   -3.044416
     34          1           0        8.632202   -2.738403   -2.341339
     35          6           0        4.837054    1.548147   -0.168533
     36          6           0        5.516065    2.321618   -1.105787
     37          6           0        4.319017    2.163542    0.967486
     38          6           0        5.679987    3.679833   -0.902534
     39          6           0        4.472338    3.525567    1.154010
     40          6           0        5.156657    4.292005    0.224805
     41          1           0        5.917204    1.848815   -1.995947
     42          1           0        3.791670    1.566068    1.703651
     43          1           0        6.213214    4.268058   -1.642948
     44          1           0        4.061647    3.989730    2.045325
     45          1           0        5.281223    5.358830    0.377899
     46          7           0       -4.591369    0.225236   -0.235572
     47          6           0       -4.996809    1.544618   -0.539366
     48          6           0       -6.345932    1.849462   -0.693639
     49          6           0       -4.053605    2.557013   -0.688173
     50          6           0       -6.738551    3.140118   -0.998819
     51          6           0       -4.455920    3.848924   -0.975713
     52          6           0       -5.798707    4.148587   -1.137139
     53          1           0       -7.085839    1.064984   -0.575406
     54          1           0       -2.999778    2.324624   -0.576668
     55          1           0       -7.794748    3.361033   -1.117399
     56          1           0       -3.707423    4.627077   -1.088273
     57          1           0       -6.110711    5.161215   -1.369943
     58          6           0       -5.228462   -0.872905   -0.859345
     59          6           0       -5.548183   -0.824769   -2.212595
     60          6           0       -5.541916   -2.014931   -0.129127
     61          6           0       -6.178047   -1.897088   -2.818017
     62          6           0       -6.155123   -3.090236   -0.746513
     63          6           0       -6.481192   -3.037227   -2.091754
     64          1           0       -5.300925    0.061617   -2.787177
     65          1           0       -5.299559   -2.056134    0.927579
     66          1           0       -6.421719   -1.844307   -3.874525
     67          1           0       -6.390696   -3.975287   -0.163884
     68          1           0       -6.967632   -3.879890   -2.571608
 ---------------------------------------------------------------------

 SCF Done:  E(ULC-wHPBE) =  -2293.18875001     A.U. after   33 cycles
 SCF Done:  E(ULC-wHPBE) =  -2293.19097459     a.u. after    6 cycles

 The electronic state is 2-A.
 Alpha  occ. eigenvalues --  -88.35147 -88.32685 -14.35517 -14.21537 -10.21300
 Alpha  occ. eigenvalues --  -10.20566 -10.20458 -10.20423 -10.18619 -10.17117
 Alpha  occ. eigenvalues --  -10.16898 -10.16284 -10.16070 -10.15950 -10.15916
 Alpha  occ. eigenvalues --  -10.15845 -10.15103 -10.14966 -10.14890 -10.14854
 Alpha  occ. eigenvalues --  -10.14722 -10.14715 -10.13755 -10.13748 -10.12173
 Alpha  occ. eigenvalues --  -10.11851 -10.10852 -10.10494 -10.09877 -10.09644
 Alpha  occ. eigenvalues --  -10.07969 -10.07842 -10.07782 -10.07607 -10.07489
 Alpha  occ. eigenvalues --  -10.07445 -10.07384 -10.07349 -10.07295 -10.06914
 Alpha  occ. eigenvalues --   -7.94364  -7.91899  -5.96485  -5.95973  -5.95379
 Alpha  occ. eigenvalues --   -5.94096  -5.93561  -5.92758  -1.20498  -1.09597
 Alpha  occ. eigenvalues --   -1.08413  -1.06548  -1.05081  -1.01774  -1.00088
 Alpha  occ. eigenvalues --   -0.98469  -0.98274  -0.97025  -0.96562  -0.95373
 Alpha  occ. eigenvalues --   -0.94788  -0.93891  -0.92923  -0.90318  -0.90181
 Alpha  occ. eigenvalues --   -0.88385  -0.88206  -0.87161  -0.86884  -0.84593
 Alpha  occ. eigenvalues --   -0.83791  -0.83506  -0.81811  -0.81051  -0.80303
 Alpha  occ. eigenvalues --   -0.78067  -0.77376  -0.76370  -0.75401  -0.74981
 Alpha  occ. eigenvalues --   -0.74337  -0.73328  -0.73114  -0.71108  -0.71035
 Alpha  occ. eigenvalues --   -0.70550  -0.69095  -0.68416  -0.68262  -0.67483
 Alpha  occ. eigenvalues --   -0.66990  -0.65919  -0.64795  -0.64366  -0.64107
 Alpha  occ. eigenvalues --   -0.63882  -0.63341  -0.62880  -0.62527  -0.62489
 Alpha  occ. eigenvalues --   -0.61472  -0.60900  -0.60848  -0.60384  -0.59749
 Alpha  occ. eigenvalues --   -0.59657  -0.59079  -0.58449  -0.57860  -0.57696
 Alpha  occ. eigenvalues --   -0.57009  -0.56651  -0.56555  -0.56228  -0.55772
 Alpha  occ. eigenvalues --   -0.55704  -0.55216  -0.54903  -0.54539  -0.54420
 Alpha  occ. eigenvalues --   -0.54111  -0.52615  -0.52239  -0.51782  -0.51560
 Alpha  occ. eigenvalues --   -0.50937  -0.50403  -0.49214  -0.48481  -0.48050
 Alpha  occ. eigenvalues --   -0.47790  -0.47565  -0.47047  -0.46809  -0.46479
 Alpha  occ. eigenvalues --   -0.46172  -0.44320  -0.43605  -0.41991  -0.40748
 Alpha  occ. eigenvalues --   -0.40050  -0.39504  -0.39211  -0.38610  -0.32112
 Alpha virt. eigenvalues --   -0.10494  -0.10095  -0.09466  -0.07829  -0.06915
 Alpha virt. eigenvalues --   -0.05398  -0.04703  -0.03467  -0.02965  -0.01708
 Alpha virt. eigenvalues --   -0.00649  -0.00452   0.00192   0.00537   0.01273

  Beta  occ. eigenvalues --  -88.35104 -88.32682 -14.34674 -14.21536 -10.21322
  Beta  occ. eigenvalues --  -10.20638 -10.20527 -10.20223 -10.18674 -10.16971
  Beta  occ. eigenvalues --  -10.16767 -10.16342 -10.15926 -10.15811 -10.15773
  Beta  occ. eigenvalues --  -10.15706 -10.14976 -10.14943 -10.14908 -10.14827
  Beta  occ. eigenvalues --  -10.14788 -10.14767 -10.13759 -10.13748 -10.12174
  Beta  occ. eigenvalues --  -10.11851 -10.10852 -10.10495 -10.09877 -10.09643
  Beta  occ. eigenvalues --  -10.07970 -10.07842 -10.07782 -10.07606 -10.07489
  Beta  occ. eigenvalues --  -10.07445 -10.07384 -10.07348 -10.07295 -10.06914
  Beta  occ. eigenvalues --   -7.94321  -7.91896  -5.96459  -5.95948  -5.95257
  Beta  occ. eigenvalues --   -5.94092  -5.93558  -5.92753  -1.19433  -1.09595
  Beta  occ. eigenvalues --   -1.08172  -1.06363  -1.04819  -1.01735  -0.99798
  Beta  occ. eigenvalues --   -0.98463  -0.98207  -0.96952  -0.96450  -0.95208
  Beta  occ. eigenvalues --   -0.94649  -0.93659  -0.92810  -0.90237  -0.89842
  Beta  occ. eigenvalues --   -0.88384  -0.88132  -0.87143  -0.86862  -0.84419
  Beta  occ. eigenvalues --   -0.83508  -0.83385  -0.81611  -0.80883  -0.80161
  Beta  occ. eigenvalues --   -0.77973  -0.77350  -0.76286  -0.75251  -0.74970
  Beta  occ. eigenvalues --   -0.74250  -0.73316  -0.73086  -0.71108  -0.70801
  Beta  occ. eigenvalues --   -0.70187  -0.68711  -0.68286  -0.68099  -0.67481
  Beta  occ. eigenvalues --   -0.66728  -0.65841  -0.64703  -0.64220  -0.64018
  Beta  occ. eigenvalues --   -0.63768  -0.63232  -0.62788  -0.62450  -0.62439
  Beta  occ. eigenvalues --   -0.61191  -0.60865  -0.60553  -0.60009  -0.59570
  Beta  occ. eigenvalues --   -0.59215  -0.59052  -0.58323  -0.57791  -0.57585
  Beta  occ. eigenvalues --   -0.56867  -0.56592  -0.56447  -0.55842  -0.55695
  Beta  occ. eigenvalues --   -0.55205  -0.55185  -0.54877  -0.54419  -0.54311
  Beta  occ. eigenvalues --   -0.53552  -0.52475  -0.52236  -0.51779  -0.51169
  Beta  occ. eigenvalues --   -0.50405  -0.49502  -0.49208  -0.48473  -0.47735
  Beta  occ. eigenvalues --   -0.47439  -0.47094  -0.46940  -0.46412  -0.46129
  Beta  occ. eigenvalues --   -0.45884  -0.43615  -0.41989  -0.41624  -0.40048
  Beta  occ. eigenvalues --   -0.39493  -0.39184  -0.38590  -0.32084
  Beta virt. eigenvalues --   -0.23702  -0.09884  -0.09434  -0.08831  -0.07313
  Beta virt. eigenvalues --   -0.06443  -0.04679  -0.04097  -0.03440  -0.02897
  Beta virt. eigenvalues --   -0.01705  -0.00645  -0.00375   0.00284   0.00544

 Mulliken charges and spin densities:
               1          2
     1  C   -0.018103   0.089608
     2  C   -0.308140  -0.059116
     3  S    0.121618   0.006770
     4  C   -0.006306   0.139463
     5  C    0.019313  -0.000384
     6  C   -0.221676  -0.000454
     7  C   -0.047440   0.006516
     8  C   -0.023057  -0.062922
     9  H    0.112388  -0.002211
    10  C   -0.118734   0.000113
    11  C   -0.099835  -0.001835
    12  C   -0.097390   0.001354
    13  C   -0.078541  -0.000039
    14  H    0.157402  -0.000016
    15  H    0.142139  -0.000046
    16  H    0.167598  -0.000057
    17  C   -0.128922   0.100682
    18  H    0.186825  -0.004307
    19  H    0.124909  -0.000191
    20  H    0.152764   0.002099
    21  H    0.188563  -0.004661
    22  S    0.092269   0.091297
    23  N   -0.021623   0.000700
    24  C   -0.051093  -0.000043
    25  C   -0.119682   0.000166
    26  C   -0.117956   0.000171
    27  C   -0.115010  -0.000073
    28  C   -0.114758  -0.000088
    29  C   -0.106917   0.000215
    30  H    0.162923  -0.000005
    31  H    0.148339  -0.000009
    32  H    0.121526   0.000004
    33  H    0.117324   0.000006
    34  H    0.121334  -0.000009
    35  C   -0.050538  -0.000040
    36  C   -0.123893   0.000166
    37  C   -0.113916   0.000167
    38  C   -0.115547  -0.000084
    39  C   -0.116601  -0.000062
    40  C   -0.110074   0.000201
    41  H    0.165837  -0.000004
    42  H    0.146968  -0.000028
    43  H    0.121400   0.000003
    44  H    0.111402   0.000009
    45  H    0.119010  -0.000008
    46  N    0.081901   0.376897
    47  C   -0.105947  -0.036998
    48  C   -0.084954   0.102741
    49  C   -0.081470   0.103133
    50  C   -0.115572  -0.065979
    51  C   -0.119402  -0.068044
    52  C   -0.067135   0.131783
    53  H    0.188275  -0.004230
    54  H    0.194538  -0.003767
    55  H    0.152724   0.003103
    56  H    0.150608   0.003278
    57  H    0.155419  -0.006442
    58  C   -0.081752  -0.033415
    59  C   -0.093431   0.101634
    60  C   -0.087924   0.102794
    61  C   -0.109432  -0.065590
    62  C   -0.110024  -0.067663
    63  C   -0.072859   0.132352
    64  H    0.186338  -0.004232
    65  H    0.183649  -0.004250
    66  H    0.152468   0.003083
    67  H    0.152339   0.003272
    68  H    0.155542  -0.006474
 Sum of Mulliken charges =   1.00000   1.00000

 Dipole moment (field-independent basis, Debye):
    X=            -16.9857    Y=              2.5280    Z=              0.1048  Tot=             17.1731
 Quadrupole moment (field-independent basis, Debye-Ang):
   XX=           -100.5331   YY=           -198.8907   ZZ=           -211.4003
   XY=             -7.2633   XZ=             13.9054   YZ=              6.0553

 Normal termination of Gaussian 16 at Thu Jan 28 07:13:24 2021.
