 Gaussian 16, Revision A.03,
 Gaussian 16:  EM64L-G16RevA.03 25-Dec-2016

 ----------------------------------------------------------------------
 #P LC-wHPBE/TZVP iop(3/107=0220900000, 3/108=0220900000) scf=(conver=6
 ,fermi,ndamp=35,noincfock,novaracc,vshift=500,xqc)
 ----------------------------------------------------------------------

 -------------
 H28 C36 S2 N2
 -------------
 Symbolic Z-matrix:
 Charge =  1 Multiplicity = 2

                         Standard orientation:
 ---------------------------------------------------------------------
 Center     Atomic      Atomic             Coordinates (Angstroms)
 Number     Number       Type             X           Y           Z
 ---------------------------------------------------------------------
      1          6           0       -2.604951   -0.985352    0.477595
      2          6           0       -1.595468   -1.227646    1.396897
      3         16           0       -0.459746   -2.557842    1.073663
      4          6           0       -1.509976   -0.467226    2.564163
      5          6           0        1.043777   -0.455726    0.021717
      6          6           0        1.038330   -1.682104    0.668307
      7          6           0       -3.557585    0.001751    0.697168
      8          6           0       -2.447111    0.539154    2.764444
      9          1           0       -0.596318    0.142670    4.605045
     10          6           0        2.238728    0.147647   -0.319798
     11          6           0        2.246539   -2.297832    0.961919
     12          6           0        3.442101   -1.694718    0.621166
     13          6           0        3.453096   -0.462920   -0.023837
     14          1           0        2.234263    1.106243   -0.827797
     15          1           0        2.253931   -3.248348    1.486346
     16          1           0        4.381679   -2.178238    0.866461
     17          6           0       -3.461673    0.764082    1.856276
     18          1           0       -2.646669   -1.585519   -0.424718
     19          1           0        0.106936    0.032641   -0.224382
     20          1           0       -2.404245    1.146243    3.663282
     21          1           0       -4.192893    1.542008    2.047877
     22         16           0       -0.233558   -0.817463    3.737465
     23          7           0        4.673686    0.159547   -0.368747
     24          6           0        5.732508   -0.612661   -0.896564
     25          6           0        7.045695   -0.377960   -0.499452
     26          6           0        5.475865   -1.622329   -1.819567
     27          6           0        8.078745   -1.133154   -1.024558
     28          6           0        6.512871   -2.384632   -2.326214
     29          6           0        7.820306   -2.143178   -1.936900
     30          1           0        7.251646    0.403669    0.224060
     31          1           0        4.454830   -1.807304   -2.136118
     32          1           0        9.097402   -0.936530   -0.704866
     33          1           0        6.295127   -3.169013   -3.044416
     34          1           0        8.632202   -2.738403   -2.341339
     35          6           0        4.837054    1.548147   -0.168533
     36          6           0        5.516065    2.321618   -1.105787
     37          6           0        4.319017    2.163542    0.967486
     38          6           0        5.679987    3.679833   -0.902534
     39          6           0        4.472338    3.525567    1.154010
     40          6           0        5.156657    4.292005    0.224805
     41          1           0        5.917204    1.848815   -1.995947
     42          1           0        3.791670    1.566068    1.703651
     43          1           0        6.213214    4.268058   -1.642948
     44          1           0        4.061647    3.989730    2.045325
     45          1           0        5.281223    5.358830    0.377899
     46          7           0       -4.591369    0.225236   -0.235572
     47          6           0       -4.996809    1.544618   -0.539366
     48          6           0       -6.345932    1.849462   -0.693639
     49          6           0       -4.053605    2.557013   -0.688173
     50          6           0       -6.738551    3.140118   -0.998819
     51          6           0       -4.455920    3.848924   -0.975713
     52          6           0       -5.798707    4.148587   -1.137139
     53          1           0       -7.085839    1.064984   -0.575406
     54          1           0       -2.999778    2.324624   -0.576668
     55          1           0       -7.794748    3.361033   -1.117399
     56          1           0       -3.707423    4.627077   -1.088273
     57          1           0       -6.110711    5.161215   -1.369943
     58          6           0       -5.228462   -0.872905   -0.859345
     59          6           0       -5.548183   -0.824769   -2.212595
     60          6           0       -5.541916   -2.014931   -0.129127
     61          6           0       -6.178047   -1.897088   -2.818017
     62          6           0       -6.155123   -3.090236   -0.746513
     63          6           0       -6.481192   -3.037227   -2.091754
     64          1           0       -5.300925    0.061617   -2.787177
     65          1           0       -5.299559   -2.056134    0.927579
     66          1           0       -6.421719   -1.844307   -3.874525
     67          1           0       -6.390696   -3.975287   -0.163884
     68          1           0       -6.967632   -3.879890   -2.571608
 ---------------------------------------------------------------------

 SCF Done:  E(ULC-wHPBE) =  -2293.15755569     A.U. after   33 cycles
 SCF Done:  E(ULC-wHPBE) =  -2293.16319515     a.u. after   18 cycles

 The electronic state is 2-A.
 Alpha  occ. eigenvalues --  -88.33209 -88.30367 -14.33990 -14.21390 -10.19717
 Alpha  occ. eigenvalues --  -10.19238 -10.19196 -10.17865 -10.15281 -10.15265
 Alpha  occ. eigenvalues --  -10.14705 -10.14670 -10.14656 -10.14613 -10.14300
 Alpha  occ. eigenvalues --  -10.14234 -10.14232 -10.14156 -10.13845 -10.13775
 Alpha  occ. eigenvalues --  -10.13756 -10.13612 -10.13603 -10.13549 -10.13542
 Alpha  occ. eigenvalues --  -10.11747 -10.11578 -10.10599 -10.10467 -10.09977
 Alpha  occ. eigenvalues --  -10.07528 -10.07480 -10.07239 -10.07206 -10.07160
 Alpha  occ. eigenvalues --  -10.07134 -10.07131 -10.07070 -10.06824 -10.06644
 Alpha  occ. eigenvalues --   -7.92332  -7.89681  -5.94496  -5.93984  -5.93359
 Alpha  occ. eigenvalues --   -5.91851  -5.91361  -5.90607  -1.18977  -1.09404
 Alpha  occ. eigenvalues --   -1.06202  -1.05222  -1.03657  -1.02398  -0.98152
 Alpha  occ. eigenvalues --   -0.98037  -0.96773  -0.95854  -0.94357  -0.94128
 Alpha  occ. eigenvalues --   -0.93555  -0.93536  -0.93134  -0.90795  -0.88422
 Alpha  occ. eigenvalues --   -0.87737  -0.86964  -0.86751  -0.86180  -0.83458
 Alpha  occ. eigenvalues --   -0.83064  -0.82074  -0.80940  -0.79848  -0.79391
 Alpha  occ. eigenvalues --   -0.77364  -0.76825  -0.75990  -0.74698  -0.74384
 Alpha  occ. eigenvalues --   -0.74233  -0.73165  -0.73049  -0.71010  -0.69584
 Alpha  occ. eigenvalues --   -0.68720  -0.68080  -0.68015  -0.67438  -0.65861
 Alpha  occ. eigenvalues --   -0.65507  -0.64878  -0.64679  -0.63527  -0.63292
 Alpha  occ. eigenvalues --   -0.63062  -0.62940  -0.62322  -0.61904  -0.61662
 Alpha  occ. eigenvalues --   -0.61538  -0.60828  -0.60177  -0.59506  -0.59196
 Alpha  occ. eigenvalues --   -0.58973  -0.58691  -0.57707  -0.57484  -0.56994
 Alpha  occ. eigenvalues --   -0.56636  -0.56010  -0.55867  -0.55674  -0.55196
 Alpha  occ. eigenvalues --   -0.55094  -0.54985  -0.54757  -0.53969  -0.53533
 Alpha  occ. eigenvalues --   -0.53032  -0.52565  -0.52091  -0.51709  -0.50592
 Alpha  occ. eigenvalues --   -0.50323  -0.49164  -0.48549  -0.48191  -0.47693
 Alpha  occ. eigenvalues --   -0.47340  -0.47185  -0.47032  -0.46983  -0.45888
 Alpha  occ. eigenvalues --   -0.45694  -0.43901  -0.43513  -0.42260  -0.40185
 Alpha  occ. eigenvalues --   -0.39676  -0.39340  -0.39185  -0.38414  -0.32307
 Alpha virt. eigenvalues --   -0.10019  -0.09598  -0.09460  -0.07445  -0.06956
 Alpha virt. eigenvalues --   -0.06230  -0.05248  -0.04758  -0.02618  -0.01828
 Alpha virt. eigenvalues --   -0.01290  -0.00491  -0.00401   0.00533   0.01329

  Beta  occ. eigenvalues --  -88.33167 -88.30367 -14.33172 -14.21389 -10.19724
  Beta  occ. eigenvalues --  -10.19304 -10.19261 -10.17674 -10.15147 -10.15135
  Beta  occ. eigenvalues --  -10.14562 -10.14529 -10.14519 -10.14477 -10.14290
  Beta  occ. eigenvalues --  -10.14283 -10.14231 -10.14205 -10.13758 -10.13710
  Beta  occ. eigenvalues --  -10.13674 -10.13650 -10.13643 -10.13611 -10.13586
  Beta  occ. eigenvalues --  -10.11747 -10.11578 -10.10600 -10.10462 -10.09971
  Beta  occ. eigenvalues --  -10.07528 -10.07480 -10.07239 -10.07206 -10.07160
  Beta  occ. eigenvalues --  -10.07134 -10.07131 -10.07070 -10.06824 -10.06644
  Beta  occ. eigenvalues --   -7.92289  -7.89681  -5.94471  -5.93958  -5.93241
  Beta  occ. eigenvalues --   -5.91851  -5.91361  -5.90607  -1.17941  -1.09403
  Beta  occ. eigenvalues --   -1.05957  -1.05039  -1.03412  -1.02314  -0.98037
  Beta  occ. eigenvalues --   -0.97918  -0.96737  -0.95677  -0.94219  -0.93993
  Beta  occ. eigenvalues --   -0.93536  -0.93400  -0.92992  -0.90394  -0.88375
  Beta  occ. eigenvalues --   -0.87733  -0.86869  -0.86750  -0.86124  -0.83215
  Beta  occ. eigenvalues --   -0.83009  -0.81874  -0.80671  -0.79683  -0.79256
  Beta  occ. eigenvalues --   -0.77321  -0.76697  -0.75963  -0.74688  -0.74233
  Beta  occ. eigenvalues --   -0.74084  -0.73143  -0.73041  -0.70973  -0.69423
  Beta  occ. eigenvalues --   -0.68383  -0.67946  -0.67505  -0.67429  -0.65735
  Beta  occ. eigenvalues --   -0.65354  -0.64813  -0.64629  -0.63435  -0.63249
  Beta  occ. eigenvalues --   -0.62910  -0.62807  -0.62236  -0.61784  -0.61638
  Beta  occ. eigenvalues --   -0.61461  -0.60822  -0.59822  -0.59266  -0.58936
  Beta  occ. eigenvalues --   -0.58731  -0.58235  -0.57704  -0.57402  -0.56948
  Beta  occ. eigenvalues --   -0.56612  -0.55914  -0.55578  -0.55227  -0.55163
  Beta  occ. eigenvalues --   -0.54980  -0.54777  -0.54705  -0.53744  -0.53432
  Beta  occ. eigenvalues --   -0.52680  -0.52221  -0.51945  -0.51688  -0.50532
  Beta  occ. eigenvalues --   -0.49587  -0.49088  -0.48538  -0.48002  -0.47293
  Beta  occ. eigenvalues --   -0.47110  -0.46910  -0.46782  -0.46276  -0.45334
  Beta  occ. eigenvalues --   -0.45270  -0.43893  -0.43016  -0.40194  -0.39854
  Beta  occ. eigenvalues --   -0.39445  -0.39179  -0.38404  -0.32292
  Beta virt. eigenvalues --   -0.23435  -0.09294  -0.09264  -0.08834  -0.06927
  Beta virt. eigenvalues --   -0.06500  -0.06110  -0.04790  -0.03966  -0.02612
  Beta virt. eigenvalues --   -0.01815  -0.01217  -0.00436  -0.00372   0.00607

 Mulliken charges and spin densities:
               1          2
     1  C   -0.052267   0.003169
     2  C   -0.277396  -0.002330
     3  S    0.164843   0.084350
     4  C   -0.019934   0.007943
     5  C    0.029673  -0.058231
     6  C   -0.216382   0.136536
     7  C   -0.046076  -0.001685
     8  C   -0.031276  -0.002422
     9  H    0.108260  -0.000274
    10  C   -0.091113   0.089671
    11  C   -0.096124  -0.054701
    12  C   -0.073571   0.091983
    13  C   -0.086535   0.012876
    14  H    0.178609  -0.003859
    15  H    0.163892   0.002186
    16  H    0.180650  -0.004151
    17  C   -0.134214   0.005371
    18  H    0.168620   0.000246
    19  H    0.184455   0.002381
    20  H    0.128689   0.000219
    21  H    0.171644  -0.000236
    22  S   -0.038106  -0.000246
    23  N    0.082807   0.365560
    24  C   -0.073360  -0.031398
    25  C   -0.096882   0.099226
    26  C   -0.093452   0.099654
    27  C   -0.109159  -0.061532
    28  C   -0.109744  -0.064018
    29  C   -0.071605   0.128645
    30  H    0.185595  -0.004096
    31  H    0.182464  -0.004145
    32  H    0.149498   0.002917
    33  H    0.149324   0.003110
    34  H    0.152460  -0.006344
    35  C   -0.073039  -0.032393
    36  C   -0.100523   0.100600
    37  C   -0.087627   0.101207
    38  C   -0.109303  -0.062517
    39  C   -0.111711  -0.064801
    40  C   -0.071959   0.130035
    41  H    0.186226  -0.004138
    42  H    0.186033  -0.004235
    43  H    0.149349   0.002925
    44  H    0.147584   0.003158
    45  H    0.151721  -0.006416
    46  N   -0.016188   0.000194
    47  C   -0.078959   0.000030
    48  C   -0.102277  -0.000042
    49  C   -0.101350  -0.000061
    50  C   -0.117062   0.000043
    51  C   -0.118777  -0.000000
    52  C   -0.098205   0.000003
    53  H    0.163542   0.000001
    54  H    0.141400   0.000027
    55  H    0.122691  -0.000001
    56  H    0.108603  -0.000001
    57  H    0.120242   0.000001
    58  C   -0.060835  -0.000012
    59  C   -0.116381   0.000005
    60  C   -0.114844  -0.000050
    61  C   -0.112615   0.000011
    62  C   -0.113055   0.000059
    63  C   -0.104221  -0.000008
    64  H    0.157227  -0.000000
    65  H    0.149988   0.000006
    66  H    0.119633   0.000001
    67  H    0.119438  -0.000002
    68  H    0.120966   0.000000
 Sum of Mulliken charges =   1.00000   1.00000

 Dipole moment (field-independent basis, Debye):
    X=             15.4401    Y=              2.3270    Z=             -1.1443  Tot=             15.6564
 Quadrupole moment (field-independent basis, Debye-Ang):
   XX=            -89.3437   YY=           -198.4107   ZZ=           -221.9325
   XY=              2.1655   XZ=            -13.7982   YZ=             10.2956

 Normal termination of Gaussian 16 at Fri Jan 29 09:09:11 2021.
