 Gaussian 16, Revision A.03,
 Gaussian 16:  EM64L-G16RevA.03 25-Dec-2016

 ----------------------------------------------------------------------
 #P LC-wHPBE/TZVP iop(3/107=0214900000, 3/108=0214900000) scf=(conver=6
 ,fermi,ndamp=35,noincfock,novaracc,vshift=500,xqc)
 ----------------------------------------------------------------------

 -------------
 H28 C36 S2 N2
 -------------
 Symbolic Z-matrix:
 Charge =  1 Multiplicity = 2

                         Standard orientation:
 ---------------------------------------------------------------------
 Center     Atomic      Atomic             Coordinates (Angstroms)
 Number     Number       Type             X           Y           Z
 ---------------------------------------------------------------------
      1          6           0       -2.604951   -0.985352    0.477595
      2          6           0       -1.595468   -1.227646    1.396897
      3         16           0       -0.459746   -2.557842    1.073663
      4          6           0       -1.509976   -0.467226    2.564163
      5          6           0        1.043777   -0.455726    0.021717
      6          6           0        1.038330   -1.682104    0.668307
      7          6           0       -3.557585    0.001751    0.697168
      8          6           0       -2.447111    0.539154    2.764444
      9          1           0       -0.596318    0.142670    4.605045
     10          6           0        2.238728    0.147647   -0.319798
     11          6           0        2.246539   -2.297832    0.961919
     12          6           0        3.442101   -1.694718    0.621166
     13          6           0        3.453096   -0.462920   -0.023837
     14          1           0        2.234263    1.106243   -0.827797
     15          1           0        2.253931   -3.248348    1.486346
     16          1           0        4.381679   -2.178238    0.866461
     17          6           0       -3.461673    0.764082    1.856276
     18          1           0       -2.646669   -1.585519   -0.424718
     19          1           0        0.106936    0.032641   -0.224382
     20          1           0       -2.404245    1.146243    3.663282
     21          1           0       -4.192893    1.542008    2.047877
     22         16           0       -0.233558   -0.817463    3.737465
     23          7           0        4.673686    0.159547   -0.368747
     24          6           0        5.732508   -0.612661   -0.896564
     25          6           0        7.045695   -0.377960   -0.499452
     26          6           0        5.475865   -1.622329   -1.819567
     27          6           0        8.078745   -1.133154   -1.024558
     28          6           0        6.512871   -2.384632   -2.326214
     29          6           0        7.820306   -2.143178   -1.936900
     30          1           0        7.251646    0.403669    0.224060
     31          1           0        4.454830   -1.807304   -2.136118
     32          1           0        9.097402   -0.936530   -0.704866
     33          1           0        6.295127   -3.169013   -3.044416
     34          1           0        8.632202   -2.738403   -2.341339
     35          6           0        4.837054    1.548147   -0.168533
     36          6           0        5.516065    2.321618   -1.105787
     37          6           0        4.319017    2.163542    0.967486
     38          6           0        5.679987    3.679833   -0.902534
     39          6           0        4.472338    3.525567    1.154010
     40          6           0        5.156657    4.292005    0.224805
     41          1           0        5.917204    1.848815   -1.995947
     42          1           0        3.791670    1.566068    1.703651
     43          1           0        6.213214    4.268058   -1.642948
     44          1           0        4.061647    3.989730    2.045325
     45          1           0        5.281223    5.358830    0.377899
     46          7           0       -4.591369    0.225236   -0.235572
     47          6           0       -4.996809    1.544618   -0.539366
     48          6           0       -6.345932    1.849462   -0.693639
     49          6           0       -4.053605    2.557013   -0.688173
     50          6           0       -6.738551    3.140118   -0.998819
     51          6           0       -4.455920    3.848924   -0.975713
     52          6           0       -5.798707    4.148587   -1.137139
     53          1           0       -7.085839    1.064984   -0.575406
     54          1           0       -2.999778    2.324624   -0.576668
     55          1           0       -7.794748    3.361033   -1.117399
     56          1           0       -3.707423    4.627077   -1.088273
     57          1           0       -6.110711    5.161215   -1.369943
     58          6           0       -5.228462   -0.872905   -0.859345
     59          6           0       -5.548183   -0.824769   -2.212595
     60          6           0       -5.541916   -2.014931   -0.129127
     61          6           0       -6.178047   -1.897088   -2.818017
     62          6           0       -6.155123   -3.090236   -0.746513
     63          6           0       -6.481192   -3.037227   -2.091754
     64          1           0       -5.300925    0.061617   -2.787177
     65          1           0       -5.299559   -2.056134    0.927579
     66          1           0       -6.421719   -1.844307   -3.874525
     67          1           0       -6.390696   -3.975287   -0.163884
     68          1           0       -6.967632   -3.879890   -2.571608
 ---------------------------------------------------------------------

 SCF Done:  E(ULC-wHPBE) =  -2293.14595490     A.U. after   33 cycles
 SCF Done:  E(ULC-wHPBE) =  -2293.15116410     a.u. after    8 cycles

 The electronic state is 2-A.
 Alpha  occ. eigenvalues --  -88.32923 -88.30057 -14.33582 -14.21091 -10.19363
 Alpha  occ. eigenvalues --  -10.18869 -10.18828 -10.17520 -10.14926 -10.14910
 Alpha  occ. eigenvalues --  -10.14338 -10.14303 -10.14288 -10.14245 -10.13974
 Alpha  occ. eigenvalues --  -10.13908 -10.13900 -10.13822 -10.13482 -10.13426
 Alpha  occ. eigenvalues --  -10.13411 -10.13257 -10.13246 -10.13192 -10.13186
 Alpha  occ. eigenvalues --  -10.11415 -10.11248 -10.10274 -10.10144 -10.09654
 Alpha  occ. eigenvalues --  -10.07202 -10.07152 -10.06911 -10.06882 -10.06835
 Alpha  occ. eigenvalues --  -10.06807 -10.06806 -10.06746 -10.06498 -10.06319
 Alpha  occ. eigenvalues --   -7.92037  -7.89364  -5.94208  -5.93698  -5.93079
 Alpha  occ. eigenvalues --   -5.91542  -5.91054  -5.90301  -1.18572  -1.09067
 Alpha  occ. eigenvalues --   -1.05834  -1.04838  -1.03284  -1.02052  -0.97807
 Alpha  occ. eigenvalues --   -0.97691  -0.96431  -0.95491  -0.94008  -0.93781
 Alpha  occ. eigenvalues --   -0.93224  -0.93176  -0.92789  -0.90454  -0.88098
 Alpha  occ. eigenvalues --   -0.87415  -0.86645  -0.86426  -0.85864  -0.83131
 Alpha  occ. eigenvalues --   -0.82755  -0.81762  -0.80622  -0.79526  -0.79076
 Alpha  occ. eigenvalues --   -0.77075  -0.76524  -0.75705  -0.74412  -0.74085
 Alpha  occ. eigenvalues --   -0.73926  -0.72881  -0.72763  -0.70734  -0.69291
 Alpha  occ. eigenvalues --   -0.68432  -0.67810  -0.67720  -0.67170  -0.65597
 Alpha  occ. eigenvalues --   -0.65234  -0.64612  -0.64423  -0.63268  -0.63034
 Alpha  occ. eigenvalues --   -0.62788  -0.62670  -0.62060  -0.61637  -0.61418
 Alpha  occ. eigenvalues --   -0.61267  -0.60578  -0.59914  -0.59244  -0.58931
 Alpha  occ. eigenvalues --   -0.58731  -0.58407  -0.57470  -0.57260  -0.56753
 Alpha  occ. eigenvalues --   -0.56398  -0.55764  -0.55619  -0.55427  -0.54961
 Alpha  occ. eigenvalues --   -0.54848  -0.54755  -0.54542  -0.53736  -0.53294
 Alpha  occ. eigenvalues --   -0.52803  -0.52350  -0.51848  -0.51463  -0.50394
 Alpha  occ. eigenvalues --   -0.50119  -0.48951  -0.48336  -0.47994  -0.47500
 Alpha  occ. eigenvalues --   -0.47147  -0.46985  -0.46837  -0.46782  -0.45705
 Alpha  occ. eigenvalues --   -0.45504  -0.43709  -0.43347  -0.42087  -0.40027
 Alpha  occ. eigenvalues --   -0.39519  -0.39186  -0.39029  -0.38263  -0.32184
 Alpha virt. eigenvalues --   -0.10128  -0.09711  -0.09559  -0.07568  -0.07071
 Alpha virt. eigenvalues --   -0.06364  -0.05367  -0.04892  -0.02753  -0.01971
 Alpha virt. eigenvalues --   -0.01457  -0.00622  -0.00544   0.00395   0.01204

  Beta  occ. eigenvalues --  -88.32880 -88.30057 -14.32772 -14.21090 -10.19368
  Beta  occ. eigenvalues --  -10.18933 -10.18890 -10.17331 -10.14795 -10.14782
  Beta  occ. eigenvalues --  -10.14198 -10.14164 -10.14153 -10.14111 -10.13963
  Beta  occ. eigenvalues --  -10.13947 -10.13907 -10.13868 -10.13428 -10.13350
  Beta  occ. eigenvalues --  -10.13317 -10.13291 -10.13283 -10.13253 -10.13226
  Beta  occ. eigenvalues --  -10.11415 -10.11248 -10.10276 -10.10139 -10.09648
  Beta  occ. eigenvalues --  -10.07201 -10.07152 -10.06911 -10.06882 -10.06835
  Beta  occ. eigenvalues --  -10.06807 -10.06806 -10.06746 -10.06498 -10.06319
  Beta  occ. eigenvalues --   -7.91994  -7.89364  -5.94183  -5.93671  -5.92958
  Beta  occ. eigenvalues --   -5.91542  -5.91054  -5.90301  -1.17546  -1.09067
  Beta  occ. eigenvalues --   -1.05590  -1.04656  -1.03042  -1.01967  -0.97691
  Beta  occ. eigenvalues --   -0.97574  -0.96395  -0.95315  -0.93870  -0.93647
  Beta  occ. eigenvalues --   -0.93206  -0.93040  -0.92647  -0.90061  -0.88051
  Beta  occ. eigenvalues --   -0.87412  -0.86550  -0.86425  -0.85807  -0.82892
  Beta  occ. eigenvalues --   -0.82699  -0.81562  -0.80356  -0.79362  -0.78943
  Beta  occ. eigenvalues --   -0.77032  -0.76396  -0.75677  -0.74401  -0.73934
  Beta  occ. eigenvalues --   -0.73778  -0.72858  -0.72755  -0.70698  -0.69132
  Beta  occ. eigenvalues --   -0.68110  -0.67672  -0.67221  -0.67160  -0.65471
  Beta  occ. eigenvalues --   -0.65080  -0.64552  -0.64370  -0.63177  -0.62990
  Beta  occ. eigenvalues --   -0.62639  -0.62541  -0.61976  -0.61522  -0.61390
  Beta  occ. eigenvalues --   -0.61192  -0.60572  -0.59571  -0.59013  -0.58692
  Beta  occ. eigenvalues --   -0.58463  -0.57964  -0.57467  -0.57176  -0.56708
  Beta  occ. eigenvalues --   -0.56375  -0.55675  -0.55333  -0.54997  -0.54927
  Beta  occ. eigenvalues --   -0.54746  -0.54541  -0.54491  -0.53511  -0.53193
  Beta  occ. eigenvalues --   -0.52471  -0.51992  -0.51715  -0.51444  -0.50335
  Beta  occ. eigenvalues --   -0.49397  -0.48879  -0.48325  -0.47800  -0.47097
  Beta  occ. eigenvalues --   -0.46918  -0.46721  -0.46599  -0.46096  -0.45151
  Beta  occ. eigenvalues --   -0.45100  -0.43701  -0.42862  -0.40036  -0.39706
  Beta  occ. eigenvalues --   -0.39292  -0.39023  -0.38253  -0.32165
  Beta virt. eigenvalues --   -0.23486  -0.09408  -0.09377  -0.08940  -0.07062
  Beta virt. eigenvalues --   -0.06624  -0.06245  -0.04925  -0.04116  -0.02747
  Beta virt. eigenvalues --   -0.01957  -0.01383  -0.00576  -0.00506   0.00469

 Mulliken charges and spin densities:
               1          2
     1  C   -0.052054   0.002996
     2  C   -0.276100  -0.002351
     3  S    0.164878   0.086681
     4  C   -0.018985   0.008235
     5  C    0.030961  -0.055843
     6  C   -0.216359   0.134460
     7  C   -0.045786  -0.001675
     8  C   -0.030793  -0.002481
     9  H    0.108441  -0.000269
    10  C   -0.091182   0.087570
    11  C   -0.095180  -0.052388
    12  C   -0.073337   0.090023
    13  C   -0.085646   0.015107
    14  H    0.177620  -0.003773
    15  H    0.163119   0.002109
    16  H    0.179708  -0.004076
    17  C   -0.133692   0.005644
    18  H    0.167508   0.000270
    19  H    0.183779   0.002286
    20  H    0.127924   0.000223
    21  H    0.170737  -0.000250
    22  S   -0.038737  -0.000280
    23  N    0.083111   0.361425
    24  C   -0.072981  -0.029521
    25  C   -0.096469   0.097486
    26  C   -0.093040   0.097925
    27  C   -0.108406  -0.059702
    28  C   -0.108984  -0.062182
    29  C   -0.071010   0.126794
    30  H    0.184616  -0.004033
    31  H    0.181405  -0.004084
    32  H    0.148744   0.002844
    33  H    0.148552   0.003038
    34  H    0.151686  -0.006270
    35  C   -0.072664  -0.030511
    36  C   -0.100121   0.098853
    37  C   -0.087180   0.099466
    38  C   -0.108547  -0.060673
    39  C   -0.110958  -0.062944
    40  C   -0.071364   0.128169
    41  H    0.185249  -0.004075
    42  H    0.184943  -0.004178
    43  H    0.148595   0.002851
    44  H    0.146802   0.003086
    45  H    0.150944  -0.006343
    46  N   -0.014106   0.000295
    47  C   -0.079247   0.000022
    48  C   -0.101591  -0.000023
    49  C   -0.100583  -0.000041
    50  C   -0.116473   0.000032
    51  C   -0.118222  -0.000019
    52  C   -0.097159   0.000033
    53  H    0.162657   0.000000
    54  H    0.140585   0.000027
    55  H    0.122016  -0.000000
    56  H    0.107926  -0.000001
    57  H    0.119561  -0.000001
    58  C   -0.061059  -0.000033
    59  C   -0.115688   0.000033
    60  C   -0.114112  -0.000027
    61  C   -0.112015  -0.000008
    62  C   -0.112471   0.000047
    63  C   -0.103212   0.000022
    64  H    0.156360  -0.000001
    65  H    0.149078   0.000005
    66  H    0.118966   0.000001
    67  H    0.118754  -0.000001
    68  H    0.120286  -0.000001
 Sum of Mulliken charges =   1.00000   1.00000

 Dipole moment (field-independent basis, Debye):
    X=             15.3637    Y=              2.3062    Z=             -1.1277  Tot=             15.5767
 Quadrupole moment (field-independent basis, Debye-Ang):
   XX=            -89.6151   YY=           -198.4533   ZZ=           -221.9431
   XY=              2.1461   XZ=            -13.7411   YZ=             10.2546

 Normal termination of Gaussian 16 at Thu Jan 28 12:11:09 2021.
