 Gaussian 16, Revision A.03,
 Gaussian 16:  EM64L-G16RevA.03 25-Dec-2016

 ----------------------------------------------------------------------
 #P LC-wHPBE/TZVP iop(3/107=0156200000, 3/108=0156200000) scf=(conver=6
 ,fermi,ndamp=35,noincfock,novaracc,vshift=500,xqc)
 ----------------------------------------------------------------------

 -------------
 H28 C36 S2 N2
 -------------
 Symbolic Z-matrix:
 Charge =  0 Multiplicity = 1

                         Standard orientation:
 ---------------------------------------------------------------------
 Center     Atomic      Atomic             Coordinates (Angstroms)
 Number     Number       Type             X           Y           Z
 ---------------------------------------------------------------------
      1          6           0       -2.604951   -0.985352    0.477595
      2          6           0       -1.595468   -1.227646    1.396897
      3         16           0       -0.459746   -2.557842    1.073663
      4          6           0       -1.509976   -0.467226    2.564163
      5          6           0        1.043777   -0.455726    0.021717
      6          6           0        1.038330   -1.682104    0.668307
      7          6           0       -3.557585    0.001751    0.697168
      8          6           0       -2.447111    0.539154    2.764444
      9          1           0       -0.596318    0.142670    4.605045
     10          6           0        2.238728    0.147647   -0.319798
     11          6           0        2.246539   -2.297832    0.961919
     12          6           0        3.442101   -1.694718    0.621166
     13          6           0        3.453096   -0.462920   -0.023837
     14          1           0        2.234263    1.106243   -0.827797
     15          1           0        2.253931   -3.248348    1.486346
     16          1           0        4.381679   -2.178238    0.866461
     17          6           0       -3.461673    0.764082    1.856276
     18          1           0       -2.646669   -1.585519   -0.424718
     19          1           0        0.106936    0.032641   -0.224382
     20          1           0       -2.404245    1.146243    3.663282
     21          1           0       -4.192893    1.542008    2.047877
     22         16           0       -0.233558   -0.817463    3.737465
     23          7           0        4.673686    0.159547   -0.368747
     24          6           0        5.732508   -0.612661   -0.896564
     25          6           0        7.045695   -0.377960   -0.499452
     26          6           0        5.475865   -1.622329   -1.819567
     27          6           0        8.078745   -1.133154   -1.024558
     28          6           0        6.512871   -2.384632   -2.326214
     29          6           0        7.820306   -2.143178   -1.936900
     30          1           0        7.251646    0.403669    0.224060
     31          1           0        4.454830   -1.807304   -2.136118
     32          1           0        9.097402   -0.936530   -0.704866
     33          1           0        6.295127   -3.169013   -3.044416
     34          1           0        8.632202   -2.738403   -2.341339
     35          6           0        4.837054    1.548147   -0.168533
     36          6           0        5.516065    2.321618   -1.105787
     37          6           0        4.319017    2.163542    0.967486
     38          6           0        5.679987    3.679833   -0.902534
     39          6           0        4.472338    3.525567    1.154010
     40          6           0        5.156657    4.292005    0.224805
     41          1           0        5.917204    1.848815   -1.995947
     42          1           0        3.791670    1.566068    1.703651
     43          1           0        6.213214    4.268058   -1.642948
     44          1           0        4.061647    3.989730    2.045325
     45          1           0        5.281223    5.358830    0.377899
     46          7           0       -4.591369    0.225236   -0.235572
     47          6           0       -4.996809    1.544618   -0.539366
     48          6           0       -6.345932    1.849462   -0.693639
     49          6           0       -4.053605    2.557013   -0.688173
     50          6           0       -6.738551    3.140118   -0.998819
     51          6           0       -4.455920    3.848924   -0.975713
     52          6           0       -5.798707    4.148587   -1.137139
     53          1           0       -7.085839    1.064984   -0.575406
     54          1           0       -2.999778    2.324624   -0.576668
     55          1           0       -7.794748    3.361033   -1.117399
     56          1           0       -3.707423    4.627077   -1.088273
     57          1           0       -6.110711    5.161215   -1.369943
     58          6           0       -5.228462   -0.872905   -0.859345
     59          6           0       -5.548183   -0.824769   -2.212595
     60          6           0       -5.541916   -2.014931   -0.129127
     61          6           0       -6.178047   -1.897088   -2.818017
     62          6           0       -6.155123   -3.090236   -0.746513
     63          6           0       -6.481192   -3.037227   -2.091754
     64          1           0       -5.300925    0.061617   -2.787177
     65          1           0       -5.299559   -2.056134    0.927579
     66          1           0       -6.421719   -1.844307   -3.874525
     67          1           0       -6.390696   -3.975287   -0.163884
     68          1           0       -6.967632   -3.879890   -2.571608
 ---------------------------------------------------------------------

 SCF Done:  E(RLC-wHPBE) =  -2293.26464968     A.U. after   16 cycles

 The electronic state is 1-A.
 Alpha  occ. eigenvalues --  -88.18447 -88.18085 -14.11283 -14.10731 -10.02180
 Alpha  occ. eigenvalues --  -10.02103 -10.01927 -10.01806 -10.01561 -10.01452
 Alpha  occ. eigenvalues --  -10.01437 -10.01380 -10.00519  -9.98914  -9.98482
 Alpha  occ. eigenvalues --   -9.98469  -9.97884  -9.97859  -9.97767  -9.97731
 Alpha  occ. eigenvalues --   -9.97722  -9.97711  -9.97660  -9.97599  -9.97519
 Alpha  occ. eigenvalues --   -9.97502  -9.97478  -9.97459  -9.97441  -9.97438
 Alpha  occ. eigenvalues --   -9.97423  -9.97414  -9.97384  -9.97256  -9.97151
 Alpha  occ. eigenvalues --   -9.97144  -9.97138  -9.97132  -9.96955  -9.96937
 Alpha  occ. eigenvalues --   -7.77675  -7.77229  -5.79916  -5.79491  -5.79439
 Alpha  occ. eigenvalues --   -5.79007  -5.78693  -5.78230  -0.98893  -0.98327
 Alpha  occ. eigenvalues --   -0.90333  -0.88461  -0.88209  -0.87798  -0.86862
 Alpha  occ. eigenvalues --   -0.86194  -0.82572  -0.81641  -0.78936  -0.78428
 Alpha  occ. eigenvalues --   -0.78265  -0.77661  -0.77158  -0.77128  -0.76924
 Alpha  occ. eigenvalues --   -0.76751  -0.76092  -0.74792  -0.72643  -0.71237
 Alpha  occ. eigenvalues --   -0.66718  -0.66182  -0.65999  -0.65471  -0.64443
 Alpha  occ. eigenvalues --   -0.64056  -0.63737  -0.63345  -0.63206  -0.62535
 Alpha  occ. eigenvalues --   -0.60746  -0.60097  -0.58054  -0.57834  -0.57572
 Alpha  occ. eigenvalues --   -0.57135  -0.54309  -0.53641  -0.53317  -0.52039
 Alpha  occ. eigenvalues --   -0.51906  -0.51415  -0.51092  -0.50802  -0.49960
 Alpha  occ. eigenvalues --   -0.49354  -0.49126  -0.48919  -0.48172  -0.47964
 Alpha  occ. eigenvalues --   -0.47776  -0.47439  -0.47220  -0.47128  -0.46607
 Alpha  occ. eigenvalues --   -0.46417  -0.46302  -0.46125  -0.45920  -0.45271
 Alpha  occ. eigenvalues --   -0.44445  -0.43484  -0.43182  -0.42725  -0.42580
 Alpha  occ. eigenvalues --   -0.42466  -0.42303  -0.40984  -0.40723  -0.40276
 Alpha  occ. eigenvalues --   -0.39949  -0.39806  -0.39473  -0.39033  -0.38994
 Alpha  occ. eigenvalues --   -0.38522  -0.38403  -0.38144  -0.37908  -0.37263
 Alpha  occ. eigenvalues --   -0.36025  -0.34623  -0.33403  -0.32362  -0.32141
 Alpha  occ. eigenvalues --   -0.31842  -0.31727  -0.31259  -0.31046  -0.30656
 Alpha  occ. eigenvalues --   -0.30638  -0.28660  -0.27729  -0.23780  -0.23297
 Alpha virt. eigenvalues --    0.00321   0.01088   0.01586   0.01761   0.01874
 Alpha virt. eigenvalues --    0.02156   0.02919   0.03725   0.03921   0.04117
 Alpha virt. eigenvalues --    0.05206   0.05859   0.06658   0.08558   0.08779

 Mulliken charges:
               1
     1  C   -0.055144
     2  C   -0.251770
     3  S    0.057520
     4  C   -0.010595
     5  C    0.024975
     6  C   -0.200196
     7  C   -0.031056
     8  C   -0.027437
     9  H    0.089877
    10  C   -0.118559
    11  C   -0.101340
    12  C   -0.094260
    13  C   -0.069381
    14  H    0.137759
    15  H    0.117089
    16  H    0.139471
    17  C   -0.141695
    18  H    0.144340
    19  H    0.142782
    20  H    0.105420
    21  H    0.146294
    22  S   -0.034366
    23  N    0.003456
    24  C   -0.056254
    25  C   -0.114085
    26  C   -0.109071
    27  C   -0.107378
    28  C   -0.107402
    29  C   -0.099286
    30  H    0.146711
    31  H    0.144997
    32  H    0.101596
    33  H    0.102152
    34  H    0.100363
    35  C   -0.055655
    36  C   -0.118492
    37  C   -0.104151
    38  C   -0.107255
    39  C   -0.109429
    40  C   -0.099630
    41  H    0.146957
    42  H    0.149503
    43  H    0.101405
    44  H    0.100595
    45  H    0.099664
    46  N    0.003867
    47  C   -0.086795
    48  C   -0.100858
    49  C   -0.096272
    50  C   -0.111539
    51  C   -0.115609
    52  C   -0.092233
    53  H    0.146962
    54  H    0.154293
    55  H    0.103244
    56  H    0.102247
    57  H    0.101978
    58  C   -0.064865
    59  C   -0.108958
    60  C   -0.102940
    61  C   -0.105298
    62  C   -0.105993
    63  C   -0.098043
    64  H    0.145018
    65  H    0.143715
    66  H    0.103177
    67  H    0.103731
    68  H    0.102130
 Sum of Mulliken charges =  -0.00000

 Dipole moment (field-independent basis, Debye):
    X=             -0.9580    Y=              1.9968    Z=             -0.0688  Tot=              2.2158
 Quadrupole moment (field-independent basis, Debye-Ang):
   XX=           -229.3899   YY=           -236.2136   ZZ=           -238.8810
   XY=             -1.7730   XZ=             -0.2866   YZ=              6.9226

 Normal termination of Gaussian 16 at Wed Jan 27 15:53:10 2021.
