 Gaussian 16, Revision A.03,
 Gaussian 16:  EM64L-G16RevA.03 25-Dec-2016

 ----------------------------------------------------------------------
 #P LC-wHPBE/TZVP iop(3/107=0156200000, 3/108=0156200000) scf=(conver=6
 ,fermi,ndamp=35,noincfock,novaracc,vshift=500,xqc)
 ----------------------------------------------------------------------

 -------------
 H28 C36 S2 N2
 -------------
 Symbolic Z-matrix:
 Charge =  1 Multiplicity = 2

                         Standard orientation:
 ---------------------------------------------------------------------
 Center     Atomic      Atomic             Coordinates (Angstroms)
 Number     Number       Type             X           Y           Z
 ---------------------------------------------------------------------
      1          6           0       -2.604951   -0.985352    0.477595
      2          6           0       -1.595468   -1.227646    1.396897
      3         16           0       -0.459746   -2.557842    1.073663
      4          6           0       -1.509976   -0.467226    2.564163
      5          6           0        1.043777   -0.455726    0.021717
      6          6           0        1.038330   -1.682104    0.668307
      7          6           0       -3.557585    0.001751    0.697168
      8          6           0       -2.447111    0.539154    2.764444
      9          1           0       -0.596318    0.142670    4.605045
     10          6           0        2.238728    0.147647   -0.319798
     11          6           0        2.246539   -2.297832    0.961919
     12          6           0        3.442101   -1.694718    0.621166
     13          6           0        3.453096   -0.462920   -0.023837
     14          1           0        2.234263    1.106243   -0.827797
     15          1           0        2.253931   -3.248348    1.486346
     16          1           0        4.381679   -2.178238    0.866461
     17          6           0       -3.461673    0.764082    1.856276
     18          1           0       -2.646669   -1.585519   -0.424718
     19          1           0        0.106936    0.032641   -0.224382
     20          1           0       -2.404245    1.146243    3.663282
     21          1           0       -4.192893    1.542008    2.047877
     22         16           0       -0.233558   -0.817463    3.737465
     23          7           0        4.673686    0.159547   -0.368747
     24          6           0        5.732508   -0.612661   -0.896564
     25          6           0        7.045695   -0.377960   -0.499452
     26          6           0        5.475865   -1.622329   -1.819567
     27          6           0        8.078745   -1.133154   -1.024558
     28          6           0        6.512871   -2.384632   -2.326214
     29          6           0        7.820306   -2.143178   -1.936900
     30          1           0        7.251646    0.403669    0.224060
     31          1           0        4.454830   -1.807304   -2.136118
     32          1           0        9.097402   -0.936530   -0.704866
     33          1           0        6.295127   -3.169013   -3.044416
     34          1           0        8.632202   -2.738403   -2.341339
     35          6           0        4.837054    1.548147   -0.168533
     36          6           0        5.516065    2.321618   -1.105787
     37          6           0        4.319017    2.163542    0.967486
     38          6           0        5.679987    3.679833   -0.902534
     39          6           0        4.472338    3.525567    1.154010
     40          6           0        5.156657    4.292005    0.224805
     41          1           0        5.917204    1.848815   -1.995947
     42          1           0        3.791670    1.566068    1.703651
     43          1           0        6.213214    4.268058   -1.642948
     44          1           0        4.061647    3.989730    2.045325
     45          1           0        5.281223    5.358830    0.377899
     46          7           0       -4.591369    0.225236   -0.235572
     47          6           0       -4.996809    1.544618   -0.539366
     48          6           0       -6.345932    1.849462   -0.693639
     49          6           0       -4.053605    2.557013   -0.688173
     50          6           0       -6.738551    3.140118   -0.998819
     51          6           0       -4.455920    3.848924   -0.975713
     52          6           0       -5.798707    4.148587   -1.137139
     53          1           0       -7.085839    1.064984   -0.575406
     54          1           0       -2.999778    2.324624   -0.576668
     55          1           0       -7.794748    3.361033   -1.117399
     56          1           0       -3.707423    4.627077   -1.088273
     57          1           0       -6.110711    5.161215   -1.369943
     58          6           0       -5.228462   -0.872905   -0.859345
     59          6           0       -5.548183   -0.824769   -2.212595
     60          6           0       -5.541916   -2.014931   -0.129127
     61          6           0       -6.178047   -1.897088   -2.818017
     62          6           0       -6.155123   -3.090236   -0.746513
     63          6           0       -6.481192   -3.037227   -2.091754
     64          1           0       -5.300925    0.061617   -2.787177
     65          1           0       -5.299559   -2.056134    0.927579
     66          1           0       -6.421719   -1.844307   -3.874525
     67          1           0       -6.390696   -3.975287   -0.163884
     68          1           0       -6.967632   -3.879890   -2.571608
 ---------------------------------------------------------------------

 SCF Done:  E(ULC-wHPBE) =  -2293.02753891     A.U. after   33 cycles
 SCF Done:  E(ULC-wHPBE) =  -2293.02808988     a.u. after    3 cycles

 The electronic state is 2-A.
 Alpha  occ. eigenvalues --  -88.30062 -88.27986 -14.26890 -14.20585 -10.14535
 Alpha  occ. eigenvalues --  -10.13600 -10.13486 -10.13199 -10.12040 -10.11605
 Alpha  occ. eigenvalues --  -10.11596 -10.10202 -10.10155 -10.09752 -10.09751
 Alpha  occ. eigenvalues --  -10.09700 -10.09543 -10.09147 -10.09041 -10.09025
 Alpha  occ. eigenvalues --  -10.08931 -10.08423 -10.08386 -10.08340 -10.08257
 Alpha  occ. eigenvalues --  -10.08225 -10.08199 -10.08196 -10.08021 -10.07905
 Alpha  occ. eigenvalues --  -10.05470 -10.05201 -10.05184 -10.05134 -10.05076
 Alpha  occ. eigenvalues --  -10.04997 -10.04937 -10.04887 -10.04705 -10.04547
 Alpha  occ. eigenvalues --   -7.89112  -7.87216  -5.91330  -5.90838  -5.90263
 Alpha  occ. eigenvalues --   -5.89446  -5.88967  -5.88263  -1.12492  -1.07674
 Alpha  occ. eigenvalues --   -1.01273  -0.99685  -0.99453  -0.97898  -0.95740
 Alpha  occ. eigenvalues --   -0.94765  -0.93574  -0.91134  -0.90401  -0.89894
 Alpha  occ. eigenvalues --   -0.89135  -0.88216  -0.88042  -0.86534  -0.85843
 Alpha  occ. eigenvalues --   -0.85495  -0.84561  -0.84307  -0.83029  -0.80819
 Alpha  occ. eigenvalues --   -0.78333  -0.77593  -0.76104  -0.75285  -0.74720
 Alpha  occ. eigenvalues --   -0.74615  -0.73988  -0.72831  -0.72091  -0.71243
 Alpha  occ. eigenvalues --   -0.71065  -0.69623  -0.69202  -0.68770  -0.66368
 Alpha  occ. eigenvalues --   -0.65759  -0.64742  -0.63978  -0.63056  -0.63008
 Alpha  occ. eigenvalues --   -0.62306  -0.61587  -0.60981  -0.60525  -0.60147
 Alpha  occ. eigenvalues --   -0.59463  -0.59354  -0.58547  -0.58414  -0.58307
 Alpha  occ. eigenvalues --   -0.57900  -0.57495  -0.57291  -0.56965  -0.56308
 Alpha  occ. eigenvalues --   -0.56048  -0.55324  -0.55172  -0.54762  -0.54508
 Alpha  occ. eigenvalues --   -0.54268  -0.53818  -0.53685  -0.53479  -0.53175
 Alpha  occ. eigenvalues --   -0.51726  -0.51419  -0.50909  -0.50723  -0.50609
 Alpha  occ. eigenvalues --   -0.50210  -0.49947  -0.49258  -0.49108  -0.48896
 Alpha  occ. eigenvalues --   -0.47983  -0.47571  -0.47372  -0.46859  -0.46053
 Alpha  occ. eigenvalues --   -0.45898  -0.45165  -0.43758  -0.43184  -0.42990
 Alpha  occ. eigenvalues --   -0.42244  -0.42107  -0.41810  -0.39654  -0.39552
 Alpha  occ. eigenvalues --   -0.38893  -0.38506  -0.37670  -0.36410  -0.32442
 Alpha virt. eigenvalues --   -0.10419  -0.10023  -0.09286  -0.08812  -0.07973
 Alpha virt. eigenvalues --   -0.07428  -0.07023  -0.05734  -0.05388  -0.04885
 Alpha virt. eigenvalues --   -0.03926  -0.03628  -0.02538  -0.01208  -0.00546

  Beta  occ. eigenvalues --  -88.30010 -88.27977 -14.26331 -14.20441 -10.14514
  Beta  occ. eigenvalues --  -10.13634 -10.13519 -10.13070 -10.11973 -10.11603
  Beta  occ. eigenvalues --  -10.11597 -10.10113 -10.10081 -10.09769 -10.09764
  Beta  occ. eigenvalues --  -10.09709 -10.09553 -10.09051 -10.08949 -10.08931
  Beta  occ. eigenvalues --  -10.08841 -10.08445 -10.08388 -10.08282 -10.08274
  Beta  occ. eigenvalues --  -10.08249 -10.08209 -10.08122 -10.08018 -10.07856
  Beta  occ. eigenvalues --  -10.05446 -10.05210 -10.05162 -10.05113 -10.05054
  Beta  occ. eigenvalues --  -10.05004 -10.04945 -10.04895 -10.04679 -10.04521
  Beta  occ. eigenvalues --   -7.89060  -7.87207  -5.91297  -5.90807  -5.90120
  Beta  occ. eigenvalues --   -5.89441  -5.88962  -5.88237  -1.11789  -1.07504
  Beta  occ. eigenvalues --   -1.01091  -0.99582  -0.99320  -0.97713  -0.95708
  Beta  occ. eigenvalues --   -0.94694  -0.93387  -0.91060  -0.90279  -0.89769
  Beta  occ. eigenvalues --   -0.89027  -0.88112  -0.87943  -0.86430  -0.85695
  Beta  occ. eigenvalues --   -0.85449  -0.84536  -0.84252  -0.82813  -0.80707
  Beta  occ. eigenvalues --   -0.78158  -0.77429  -0.75924  -0.75222  -0.74598
  Beta  occ. eigenvalues --   -0.74537  -0.73912  -0.72779  -0.71982  -0.71211
  Beta  occ. eigenvalues --   -0.71019  -0.69522  -0.69096  -0.68705  -0.66321
  Beta  occ. eigenvalues --   -0.65729  -0.64622  -0.63737  -0.62979  -0.62746
  Beta  occ. eigenvalues --   -0.62201  -0.61527  -0.60833  -0.60460  -0.60103
  Beta  occ. eigenvalues --   -0.59367  -0.59290  -0.58459  -0.58323  -0.58262
  Beta  occ. eigenvalues --   -0.57833  -0.57428  -0.57223  -0.56915  -0.56272
  Beta  occ. eigenvalues --   -0.55867  -0.55269  -0.55125  -0.54617  -0.54192
  Beta  occ. eigenvalues --   -0.54098  -0.53670  -0.53550  -0.53411  -0.53119
  Beta  occ. eigenvalues --   -0.51409  -0.51329  -0.50783  -0.50554  -0.50522
  Beta  occ. eigenvalues --   -0.50143  -0.49717  -0.49182  -0.48951  -0.48690
  Beta  occ. eigenvalues --   -0.47934  -0.47293  -0.47208  -0.46709  -0.45968
  Beta  occ. eigenvalues --   -0.45851  -0.44481  -0.43523  -0.42748  -0.42650
  Beta  occ. eigenvalues --   -0.41925  -0.41861  -0.41590  -0.39457  -0.38849
  Beta  occ. eigenvalues --   -0.38450  -0.38055  -0.37158  -0.30911
  Beta virt. eigenvalues --   -0.23952  -0.09936  -0.09763  -0.08884  -0.08543
  Beta virt. eigenvalues --   -0.07763  -0.07177  -0.06741  -0.05628  -0.04832
  Beta virt. eigenvalues --   -0.04783  -0.03753  -0.03558  -0.02396  -0.01069

 Mulliken charges and spin densities:
               1          2
     1  C   -0.045007  -0.003204
     2  C   -0.268769  -0.009748
     3  S    0.161000   0.107422
     4  C   -0.009724   0.044539
     5  C    0.041061  -0.025171
     6  C   -0.219941   0.090613
     7  C   -0.044202   0.004446
     8  C   -0.021128  -0.011774
     9  H    0.112113  -0.000674
    10  C   -0.098379   0.048008
    11  C   -0.085335  -0.024282
    12  C   -0.077307   0.058798
    13  C   -0.078521   0.027988
    14  H    0.165345  -0.001958
    15  H    0.152907   0.001309
    16  H    0.169555  -0.002801
    17  C   -0.127511   0.034893
    18  H    0.162403   0.001107
    19  H    0.167975   0.001047
    20  H    0.127543   0.000259
    21  H    0.167647  -0.001687
    22  S   -0.015659   0.022359
    23  N    0.066578   0.252316
    24  C   -0.068717  -0.012385
    25  C   -0.098257   0.064645
    26  C   -0.095455   0.065060
    27  C   -0.103096  -0.034759
    28  C   -0.103470  -0.036820
    29  C   -0.073656   0.087220
    30  H    0.171643  -0.002718
    31  H    0.165283  -0.002789
    32  H    0.137038   0.001735
    33  H    0.135870   0.001923
    34  H    0.139163  -0.004438
    35  C   -0.068134  -0.012777
    36  C   -0.101876   0.066073
    37  C   -0.089182   0.066543
    38  C   -0.103309  -0.035617
    39  C   -0.105376  -0.037246
    40  C   -0.074429   0.088875
    41  H    0.172889  -0.002759
    42  H    0.166967  -0.003183
    43  H    0.136962   0.001725
    44  H    0.133186   0.001995
    45  H    0.138151  -0.004522
    46  N    0.020684   0.068681
    47  C   -0.088513  -0.004021
    48  C   -0.093956   0.015756
    49  C   -0.092891   0.016392
    50  C   -0.110009  -0.008098
    51  C   -0.112925  -0.009495
    52  C   -0.083964   0.021571
    53  H    0.160250  -0.000683
    54  H    0.144954  -0.000525
    55  H    0.123089   0.000429
    56  H    0.111636   0.000493
    57  H    0.121668  -0.001107
    58  C   -0.068544  -0.004737
    59  C   -0.106489   0.016913
    60  C   -0.103926   0.016195
    61  C   -0.105411  -0.009039
    62  C   -0.106025  -0.008591
    63  C   -0.090183   0.021925
    64  H    0.155081  -0.000734
    65  H    0.147539  -0.000709
    66  H    0.120684   0.000463
    67  H    0.120201   0.000460
    68  H    0.122213  -0.001124
 Sum of Mulliken charges =   1.00000   1.00000

 Dipole moment (field-independent basis, Debye):
    X=              8.0900    Y=              2.0589    Z=             -0.5038  Tot=              8.3631
 Quadrupole moment (field-independent basis, Debye-Ang):
   XX=            -96.3110   YY=           -199.0926   ZZ=           -219.5340
   XY=             -0.0080   XZ=             -7.7933   YZ=              8.7995

 Normal termination of Gaussian 16 at Wed Jan 27 18:38:38 2021.
