 Gaussian 16, Revision A.03,
 Gaussian 16:  EM64L-G16RevA.03 25-Dec-2016

 ----------------------------------------------------------------------
 #P LC-wHPBE/TZVP iop(3/107=0222700000, 3/108=0222700000) scf=(conver=6
 ,fermi,ndamp=35,noincfock,novaracc,vshift=500,xqc)
 ----------------------------------------------------------------------

 -------------
 H28 C36 S2 N2
 -------------
 Symbolic Z-matrix:
 Charge =  0 Multiplicity = 1

                         Standard orientation:
 ---------------------------------------------------------------------
 Center     Atomic      Atomic             Coordinates (Angstroms)
 Number     Number       Type             X           Y           Z
 ---------------------------------------------------------------------
      1          6           0       -2.604951   -0.985352    0.477595
      2          6           0       -1.595468   -1.227646    1.396897
      3         16           0       -0.459746   -2.557842    1.073663
      4          6           0       -1.509976   -0.467226    2.564163
      5          6           0        1.043777   -0.455726    0.021717
      6          6           0        1.038330   -1.682104    0.668307
      7          6           0       -3.557585    0.001751    0.697168
      8          6           0       -2.447111    0.539154    2.764444
      9          1           0       -0.596318    0.142670    4.605045
     10          6           0        2.238728    0.147647   -0.319798
     11          6           0        2.246539   -2.297832    0.961919
     12          6           0        3.442101   -1.694718    0.621166
     13          6           0        3.453096   -0.462920   -0.023837
     14          1           0        2.234263    1.106243   -0.827797
     15          1           0        2.253931   -3.248348    1.486346
     16          1           0        4.381679   -2.178238    0.866461
     17          6           0       -3.461673    0.764082    1.856276
     18          1           0       -2.646669   -1.585519   -0.424718
     19          1           0        0.106936    0.032641   -0.224382
     20          1           0       -2.404245    1.146243    3.663282
     21          1           0       -4.192893    1.542008    2.047877
     22         16           0       -0.233558   -0.817463    3.737465
     23          7           0        4.673686    0.159547   -0.368747
     24          6           0        5.732508   -0.612661   -0.896564
     25          6           0        7.045695   -0.377960   -0.499452
     26          6           0        5.475865   -1.622329   -1.819567
     27          6           0        8.078745   -1.133154   -1.024558
     28          6           0        6.512871   -2.384632   -2.326214
     29          6           0        7.820306   -2.143178   -1.936900
     30          1           0        7.251646    0.403669    0.224060
     31          1           0        4.454830   -1.807304   -2.136118
     32          1           0        9.097402   -0.936530   -0.704866
     33          1           0        6.295127   -3.169013   -3.044416
     34          1           0        8.632202   -2.738403   -2.341339
     35          6           0        4.837054    1.548147   -0.168533
     36          6           0        5.516065    2.321618   -1.105787
     37          6           0        4.319017    2.163542    0.967486
     38          6           0        5.679987    3.679833   -0.902534
     39          6           0        4.472338    3.525567    1.154010
     40          6           0        5.156657    4.292005    0.224805
     41          1           0        5.917204    1.848815   -1.995947
     42          1           0        3.791670    1.566068    1.703651
     43          1           0        6.213214    4.268058   -1.642948
     44          1           0        4.061647    3.989730    2.045325
     45          1           0        5.281223    5.358830    0.377899
     46          7           0       -4.591369    0.225236   -0.235572
     47          6           0       -4.996809    1.544618   -0.539366
     48          6           0       -6.345932    1.849462   -0.693639
     49          6           0       -4.053605    2.557013   -0.688173
     50          6           0       -6.738551    3.140118   -0.998819
     51          6           0       -4.455920    3.848924   -0.975713
     52          6           0       -5.798707    4.148587   -1.137139
     53          1           0       -7.085839    1.064984   -0.575406
     54          1           0       -2.999778    2.324624   -0.576668
     55          1           0       -7.794748    3.361033   -1.117399
     56          1           0       -3.707423    4.627077   -1.088273
     57          1           0       -6.110711    5.161215   -1.369943
     58          6           0       -5.228462   -0.872905   -0.859345
     59          6           0       -5.548183   -0.824769   -2.212595
     60          6           0       -5.541916   -2.014931   -0.129127
     61          6           0       -6.178047   -1.897088   -2.818017
     62          6           0       -6.155123   -3.090236   -0.746513
     63          6           0       -6.481192   -3.037227   -2.091754
     64          1           0       -5.300925    0.061617   -2.787177
     65          1           0       -5.299559   -2.056134    0.927579
     66          1           0       -6.421719   -1.844307   -3.874525
     67          1           0       -6.390696   -3.975287   -0.163884
     68          1           0       -6.967632   -3.879890   -2.571608
 ---------------------------------------------------------------------

 SCF Done:  E(RLC-wHPBE) =  -2293.40945236     A.U. after   16 cycles

 The electronic state is 1-A.
 Alpha  occ. eigenvalues --  -88.22017 -88.21676 -14.14763 -14.14194 -10.06016
 Alpha  occ. eigenvalues --  -10.05933 -10.05734 -10.05604 -10.05372 -10.05249
 Alpha  occ. eigenvalues --  -10.05232 -10.05189 -10.04314 -10.02695 -10.02250
 Alpha  occ. eigenvalues --  -10.02249 -10.01651 -10.01625 -10.01526 -10.01487
 Alpha  occ. eigenvalues --  -10.01477 -10.01474 -10.01400 -10.01336 -10.01249
 Alpha  occ. eigenvalues --  -10.01231 -10.01208 -10.01199 -10.01195 -10.01187
 Alpha  occ. eigenvalues --  -10.01178 -10.01169 -10.01140 -10.01002 -10.00878
 Alpha  occ. eigenvalues --  -10.00870 -10.00864 -10.00858 -10.00702 -10.00681
 Alpha  occ. eigenvalues --   -7.81313  -7.80891  -5.83486  -5.83086  -5.82994
 Alpha  occ. eigenvalues --   -5.82586  -5.82231  -5.81790  -1.02772  -1.02188
 Alpha  occ. eigenvalues --   -0.94344  -0.92436  -0.92182  -0.91764  -0.90803
 Alpha  occ. eigenvalues --   -0.90121  -0.86451  -0.85489  -0.82741  -0.82225
 Alpha  occ. eigenvalues --   -0.82050  -0.81463  -0.80946  -0.80914  -0.80709
 Alpha  occ. eigenvalues --   -0.80532  -0.79814  -0.78495  -0.76271  -0.74841
 Alpha  occ. eigenvalues --   -0.70204  -0.69657  -0.69452  -0.68922  -0.67914
 Alpha  occ. eigenvalues --   -0.67517  -0.67183  -0.66778  -0.66633  -0.65927
 Alpha  occ. eigenvalues --   -0.64100  -0.63440  -0.61338  -0.61099  -0.60846
 Alpha  occ. eigenvalues --   -0.60350  -0.57482  -0.56816  -0.56463  -0.55128
 Alpha  occ. eigenvalues --   -0.54969  -0.54465  -0.54178  -0.53807  -0.53008
 Alpha  occ. eigenvalues --   -0.52386  -0.52132  -0.51941  -0.51162  -0.50972
 Alpha  occ. eigenvalues --   -0.50729  -0.50372  -0.50145  -0.50061  -0.49570
 Alpha  occ. eigenvalues --   -0.49358  -0.49230  -0.49074  -0.48837  -0.48121
 Alpha  occ. eigenvalues --   -0.47440  -0.46358  -0.46262  -0.45821  -0.45650
 Alpha  occ. eigenvalues --   -0.45420  -0.45297  -0.43660  -0.43411  -0.42952
 Alpha  occ. eigenvalues --   -0.42633  -0.42478  -0.42166  -0.41646  -0.41589
 Alpha  occ. eigenvalues --   -0.41127  -0.41001  -0.40748  -0.40499  -0.39874
 Alpha  occ. eigenvalues --   -0.38606  -0.37107  -0.35779  -0.34536  -0.34320
 Alpha  occ. eigenvalues --   -0.34023  -0.33900  -0.33399  -0.33194  -0.32786
 Alpha  occ. eigenvalues --   -0.32781  -0.30764  -0.29845  -0.25529  -0.25037
 Alpha virt. eigenvalues --    0.01905   0.02651   0.03217   0.03390   0.03496
 Alpha virt. eigenvalues --    0.03786   0.04671   0.05523   0.05728   0.05920
 Alpha virt. eigenvalues --    0.07135   0.07678   0.08496   0.10353   0.10523

 Mulliken charges:
               1
     1  C   -0.058336
     2  C   -0.265630
     3  S    0.070152
     4  C   -0.018556
     5  C    0.014970
     6  C   -0.204378
     7  C   -0.032827
     8  C   -0.033607
     9  H    0.088763
    10  C   -0.120130
    11  C   -0.109372
    12  C   -0.097528
    13  C   -0.071683
    14  H    0.146732
    15  H    0.124498
    16  H    0.148262
    17  C   -0.146060
    18  H    0.155933
    19  H    0.148186
    20  H    0.113118
    21  H    0.155291
    22  S   -0.025768
    23  N   -0.017987
    24  C   -0.052424
    25  C   -0.119529
    26  C   -0.114612
    27  C   -0.113415
    28  C   -0.113484
    29  C   -0.107867
    30  H    0.155040
    31  H    0.153426
    32  H    0.107773
    33  H    0.108337
    34  H    0.106748
    35  C   -0.051640
    36  C   -0.123906
    37  C   -0.110049
    38  C   -0.113258
    39  C   -0.115410
    40  C   -0.108317
    41  H    0.155301
    42  H    0.158072
    43  H    0.107590
    44  H    0.106809
    45  H    0.106059
    46  N   -0.017522
    47  C   -0.082243
    48  C   -0.106339
    49  C   -0.102095
    50  C   -0.117636
    51  C   -0.121284
    52  C   -0.101028
    53  H    0.155355
    54  H    0.161942
    55  H    0.109447
    56  H    0.108494
    57  H    0.108368
    58  C   -0.060730
    59  C   -0.114404
    60  C   -0.108558
    61  C   -0.111465
    62  C   -0.112011
    63  C   -0.106560
    64  H    0.153272
    65  H    0.151962
    66  H    0.109334
    67  H    0.109925
    68  H    0.108487
 Sum of Mulliken charges =  -0.00000

 Dipole moment (field-independent basis, Debye):
    X=             -0.9748    Y=              2.0680    Z=             -0.1134  Tot=              2.2890
 Quadrupole moment (field-independent basis, Debye-Ang):
   XX=           -228.2160   YY=           -235.4477   ZZ=           -238.3886
   XY=             -1.8383   XZ=             -0.3241   YZ=              7.1266

 Normal termination of Gaussian 16 at Fri Jan 29 09:40:43 2021.
