 Gaussian 16, Revision A.03,
 Gaussian 16:  EM64L-G16RevA.03 25-Dec-2016

 ----------------------------------------------------------------------
 #P LC-wHPBE/TZVP iop(3/107=0221200000, 3/108=0221200000) scf=(conver=6
 ,fermi,ndamp=35,noincfock,novaracc,vshift=500,xqc)
 ----------------------------------------------------------------------

 -------------
 H28 C36 S2 N2
 -------------
 Symbolic Z-matrix:
 Charge =  1 Multiplicity = 2

                         Standard orientation:
 ---------------------------------------------------------------------
 Center     Atomic      Atomic             Coordinates (Angstroms)
 Number     Number       Type             X           Y           Z
 ---------------------------------------------------------------------
      1          6           0       -2.604951   -0.985352    0.477595
      2          6           0       -1.595468   -1.227646    1.396897
      3         16           0       -0.459746   -2.557842    1.073663
      4          6           0       -1.509976   -0.467226    2.564163
      5          6           0        1.043777   -0.455726    0.021717
      6          6           0        1.038330   -1.682104    0.668307
      7          6           0       -3.557585    0.001751    0.697168
      8          6           0       -2.447111    0.539154    2.764444
      9          1           0       -0.596318    0.142670    4.605045
     10          6           0        2.238728    0.147647   -0.319798
     11          6           0        2.246539   -2.297832    0.961919
     12          6           0        3.442101   -1.694718    0.621166
     13          6           0        3.453096   -0.462920   -0.023837
     14          1           0        2.234263    1.106243   -0.827797
     15          1           0        2.253931   -3.248348    1.486346
     16          1           0        4.381679   -2.178238    0.866461
     17          6           0       -3.461673    0.764082    1.856276
     18          1           0       -2.646669   -1.585519   -0.424718
     19          1           0        0.106936    0.032641   -0.224382
     20          1           0       -2.404245    1.146243    3.663282
     21          1           0       -4.192893    1.542008    2.047877
     22         16           0       -0.233558   -0.817463    3.737465
     23          7           0        4.673686    0.159547   -0.368747
     24          6           0        5.732508   -0.612661   -0.896564
     25          6           0        7.045695   -0.377960   -0.499452
     26          6           0        5.475865   -1.622329   -1.819567
     27          6           0        8.078745   -1.133154   -1.024558
     28          6           0        6.512871   -2.384632   -2.326214
     29          6           0        7.820306   -2.143178   -1.936900
     30          1           0        7.251646    0.403669    0.224060
     31          1           0        4.454830   -1.807304   -2.136118
     32          1           0        9.097402   -0.936530   -0.704866
     33          1           0        6.295127   -3.169013   -3.044416
     34          1           0        8.632202   -2.738403   -2.341339
     35          6           0        4.837054    1.548147   -0.168533
     36          6           0        5.516065    2.321618   -1.105787
     37          6           0        4.319017    2.163542    0.967486
     38          6           0        5.679987    3.679833   -0.902534
     39          6           0        4.472338    3.525567    1.154010
     40          6           0        5.156657    4.292005    0.224805
     41          1           0        5.917204    1.848815   -1.995947
     42          1           0        3.791670    1.566068    1.703651
     43          1           0        6.213214    4.268058   -1.642948
     44          1           0        4.061647    3.989730    2.045325
     45          1           0        5.281223    5.358830    0.377899
     46          7           0       -4.591369    0.225236   -0.235572
     47          6           0       -4.996809    1.544618   -0.539366
     48          6           0       -6.345932    1.849462   -0.693639
     49          6           0       -4.053605    2.557013   -0.688173
     50          6           0       -6.738551    3.140118   -0.998819
     51          6           0       -4.455920    3.848924   -0.975713
     52          6           0       -5.798707    4.148587   -1.137139
     53          1           0       -7.085839    1.064984   -0.575406
     54          1           0       -2.999778    2.324624   -0.576668
     55          1           0       -7.794748    3.361033   -1.117399
     56          1           0       -3.707423    4.627077   -1.088273
     57          1           0       -6.110711    5.161215   -1.369943
     58          6           0       -5.228462   -0.872905   -0.859345
     59          6           0       -5.548183   -0.824769   -2.212595
     60          6           0       -5.541916   -2.014931   -0.129127
     61          6           0       -6.178047   -1.897088   -2.818017
     62          6           0       -6.155123   -3.090236   -0.746513
     63          6           0       -6.481192   -3.037227   -2.091754
     64          1           0       -5.300925    0.061617   -2.787177
     65          1           0       -5.299559   -2.056134    0.927579
     66          1           0       -6.421719   -1.844307   -3.874525
     67          1           0       -6.390696   -3.975287   -0.163884
     68          1           0       -6.967632   -3.879890   -2.571608
 ---------------------------------------------------------------------

 SCF Done:  E(ULC-wHPBE) =  -2293.15813236     A.U. after   33 cycles
 SCF Done:  E(ULC-wHPBE) =  -2293.16379221     a.u. after   18 cycles

 The electronic state is 2-A.
 Alpha  occ. eigenvalues --  -88.33224 -88.30383 -14.34011 -14.21404 -10.19735
 Alpha  occ. eigenvalues --  -10.19256 -10.19215 -10.17883 -10.15299 -10.15283
 Alpha  occ. eigenvalues --  -10.14723 -10.14688 -10.14674 -10.14631 -10.14317
 Alpha  occ. eigenvalues --  -10.14251 -10.14249 -10.14173 -10.13863 -10.13792
 Alpha  occ. eigenvalues --  -10.13772 -10.13630 -10.13620 -10.13566 -10.13560
 Alpha  occ. eigenvalues --  -10.11763 -10.11595 -10.10615 -10.10483 -10.09994
 Alpha  occ. eigenvalues --  -10.07544 -10.07497 -10.07256 -10.07222 -10.07177
 Alpha  occ. eigenvalues --  -10.07150 -10.07147 -10.07086 -10.06841 -10.06660
 Alpha  occ. eigenvalues --   -7.92347  -7.89697  -5.94511  -5.93999  -5.93373
 Alpha  occ. eigenvalues --   -5.91866  -5.91377  -5.90622  -1.18998  -1.09420
 Alpha  occ. eigenvalues --   -1.06221  -1.05241  -1.03676  -1.02416  -0.98170
 Alpha  occ. eigenvalues --   -0.98054  -0.96790  -0.95872  -0.94374  -0.94146
 Alpha  occ. eigenvalues --   -0.93572  -0.93554  -0.93151  -0.90812  -0.88438
 Alpha  occ. eigenvalues --   -0.87753  -0.86980  -0.86767  -0.86196  -0.83474
 Alpha  occ. eigenvalues --   -0.83079  -0.82090  -0.80956  -0.79864  -0.79406
 Alpha  occ. eigenvalues --   -0.77379  -0.76840  -0.76005  -0.74713  -0.74399
 Alpha  occ. eigenvalues --   -0.74248  -0.73180  -0.73064  -0.71024  -0.69598
 Alpha  occ. eigenvalues --   -0.68734  -0.68093  -0.68029  -0.67451  -0.65875
 Alpha  occ. eigenvalues --   -0.65520  -0.64891  -0.64692  -0.63540  -0.63305
 Alpha  occ. eigenvalues --   -0.63075  -0.62953  -0.62335  -0.61917  -0.61674
 Alpha  occ. eigenvalues --   -0.61551  -0.60841  -0.60190  -0.59519  -0.59209
 Alpha  occ. eigenvalues --   -0.58985  -0.58705  -0.57719  -0.57496  -0.57006
 Alpha  occ. eigenvalues --   -0.56648  -0.56023  -0.55879  -0.55686  -0.55208
 Alpha  occ. eigenvalues --   -0.55106  -0.54997  -0.54767  -0.53980  -0.53545
 Alpha  occ. eigenvalues --   -0.53043  -0.52576  -0.52103  -0.51721  -0.50602
 Alpha  occ. eigenvalues --   -0.50333  -0.49175  -0.48559  -0.48201  -0.47703
 Alpha  occ. eigenvalues --   -0.47349  -0.47195  -0.47042  -0.46993  -0.45897
 Alpha  occ. eigenvalues --   -0.45703  -0.43911  -0.43521  -0.42268  -0.40193
 Alpha  occ. eigenvalues --   -0.39683  -0.39348  -0.39193  -0.38421  -0.32314
 Alpha virt. eigenvalues --   -0.10014  -0.09592  -0.09455  -0.07439  -0.06950
 Alpha virt. eigenvalues --   -0.06223  -0.05242  -0.04751  -0.02612  -0.01822
 Alpha virt. eigenvalues --   -0.01282  -0.00485  -0.00394   0.00539   0.01335

  Beta  occ. eigenvalues --  -88.33182 -88.30383 -14.33192 -14.21404 -10.19743
  Beta  occ. eigenvalues --  -10.19323 -10.19280 -10.17691 -10.15165 -10.15153
  Beta  occ. eigenvalues --  -10.14580 -10.14547 -10.14537 -10.14495 -10.14306
  Beta  occ. eigenvalues --  -10.14301 -10.14247 -10.14222 -10.13774 -10.13727
  Beta  occ. eigenvalues --  -10.13692 -10.13668 -10.13660 -10.13629 -10.13603
  Beta  occ. eigenvalues --  -10.11763 -10.11595 -10.10617 -10.10478 -10.09987
  Beta  occ. eigenvalues --  -10.07544 -10.07497 -10.07256 -10.07222 -10.07177
  Beta  occ. eigenvalues --  -10.07150 -10.07147 -10.07086 -10.06841 -10.06660
  Beta  occ. eigenvalues --   -7.92305  -7.89697  -5.94487  -5.93973  -5.93256
  Beta  occ. eigenvalues --   -5.91866  -5.91377  -5.90622  -1.17960  -1.09420
  Beta  occ. eigenvalues --   -1.05975  -1.05058  -1.03430  -1.02332  -0.98054
  Beta  occ. eigenvalues --   -0.97936  -0.96755  -0.95695  -0.94236  -0.94011
  Beta  occ. eigenvalues --   -0.93553  -0.93417  -0.93009  -0.90411  -0.88391
  Beta  occ. eigenvalues --   -0.87749  -0.86885  -0.86766  -0.86140  -0.83231
  Beta  occ. eigenvalues --   -0.83024  -0.81889  -0.80687  -0.79699  -0.79272
  Beta  occ. eigenvalues --   -0.77336  -0.76712  -0.75977  -0.74702  -0.74248
  Beta  occ. eigenvalues --   -0.74099  -0.73158  -0.73055  -0.70987  -0.69437
  Beta  occ. eigenvalues --   -0.68397  -0.67960  -0.67519  -0.67442  -0.65748
  Beta  occ. eigenvalues --   -0.65367  -0.64826  -0.64642  -0.63447  -0.63262
  Beta  occ. eigenvalues --   -0.62923  -0.62820  -0.62249  -0.61797  -0.61651
  Beta  occ. eigenvalues --   -0.61474  -0.60835  -0.59834  -0.59279  -0.58948
  Beta  occ. eigenvalues --   -0.58744  -0.58249  -0.57715  -0.57413  -0.56960
  Beta  occ. eigenvalues --   -0.56624  -0.55925  -0.55590  -0.55239  -0.55175
  Beta  occ. eigenvalues --   -0.54992  -0.54789  -0.54716  -0.53755  -0.53443
  Beta  occ. eigenvalues --   -0.52690  -0.52233  -0.51956  -0.51700  -0.50542
  Beta  occ. eigenvalues --   -0.49596  -0.49099  -0.48548  -0.48012  -0.47303
  Beta  occ. eigenvalues --   -0.47119  -0.46920  -0.46791  -0.46285  -0.45343
  Beta  occ. eigenvalues --   -0.45278  -0.43902  -0.43024  -0.40202  -0.39861
  Beta  occ. eigenvalues --   -0.39452  -0.39187  -0.38411  -0.32298
  Beta virt. eigenvalues --   -0.23434  -0.09288  -0.09259  -0.08828  -0.06920
  Beta virt. eigenvalues --   -0.06493  -0.06104  -0.04784  -0.03959  -0.02606
  Beta virt. eigenvalues --   -0.01808  -0.01209  -0.00429  -0.00365   0.00613

 Mulliken charges and spin densities:
               1          2
     1  C   -0.052280   0.003152
     2  C   -0.277469  -0.002344
     3  S    0.164858   0.084272
     4  C   -0.019983   0.007965
     5  C    0.029610  -0.058336
     6  C   -0.216378   0.136631
     7  C   -0.046098  -0.001687
     8  C   -0.031298  -0.002434
     9  H    0.108253  -0.000274
    10  C   -0.091109   0.089754
    11  C   -0.096169  -0.054806
    12  C   -0.073581   0.092073
    13  C   -0.086574   0.012775
    14  H    0.178657  -0.003862
    15  H    0.163930   0.002189
    16  H    0.180698  -0.004154
    17  C   -0.134241   0.005390
    18  H    0.168680   0.000247
    19  H    0.184484   0.002385
    20  H    0.128732   0.000219
    21  H    0.171694  -0.000237
    22  S   -0.038069  -0.000248
    23  N    0.082794   0.365726
    24  C   -0.073375  -0.031488
    25  C   -0.096904   0.099301
    26  C   -0.093475   0.099728
    27  C   -0.109198  -0.061614
    28  C   -0.109783  -0.064101
    29  C   -0.071638   0.128721
    30  H    0.185641  -0.004098
    31  H    0.182512  -0.004147
    32  H    0.149531   0.002920
    33  H    0.149358   0.003113
    34  H    0.152494  -0.006346
    35  C   -0.073054  -0.032484
    36  C   -0.100544   0.100675
    37  C   -0.087651   0.101282
    38  C   -0.109341  -0.062599
    39  C   -0.111750  -0.064885
    40  C   -0.071991   0.130111
    41  H    0.186272  -0.004141
    42  H    0.186080  -0.004238
    43  H    0.149382   0.002928
    44  H    0.147619   0.003161
    45  H    0.151756  -0.006419
    46  N   -0.016301   0.000211
    47  C   -0.078950   0.000025
    48  C   -0.102313  -0.000037
    49  C   -0.101392  -0.000057
    50  C   -0.117091   0.000038
    51  C   -0.118805  -0.000006
    52  C   -0.098258   0.000010
    53  H    0.163590   0.000001
    54  H    0.141448   0.000026
    55  H    0.122729  -0.000001
    56  H    0.108643  -0.000001
    57  H    0.120281   0.000000
    58  C   -0.060829  -0.000018
    59  C   -0.116417   0.000010
    60  C   -0.114881  -0.000044
    61  C   -0.112645   0.000005
    62  C   -0.113084   0.000054
    63  C   -0.104272  -0.000001
    64  H    0.157274  -0.000000
    65  H    0.150036   0.000006
    66  H    0.119671   0.000001
    67  H    0.119477  -0.000002
    68  H    0.121005  -0.000000
 Sum of Mulliken charges =   1.00000   1.00000

 Dipole moment (field-independent basis, Debye):
    X=             15.4421    Y=              2.3277    Z=             -1.1449  Tot=             15.6585
 Quadrupole moment (field-independent basis, Debye-Ang):
   XX=            -89.3349   YY=           -198.4087   ZZ=           -221.9313
   XY=              2.1653   XZ=            -13.7986   YZ=             10.2968

 Normal termination of Gaussian 16 at Fri Jan 29 19:56:26 2021.
