 Gaussian 16, Revision A.03,
 Gaussian 16:  EM64L-G16RevA.03 25-Dec-2016

 ----------------------------------------------------------------------
 #P LC-wHPBE/TZVP iop(3/107=0219200000, 3/108=0219200000) scf=(conver=6
 ,fermi,ndamp=35,noincfock,novaracc,vshift=500,xqc)
 ----------------------------------------------------------------------

 -------------
 H28 C36 S2 N2
 -------------
 Symbolic Z-matrix:
 Charge =  1 Multiplicity = 2

                         Standard orientation:
 ---------------------------------------------------------------------
 Center     Atomic      Atomic             Coordinates (Angstroms)
 Number     Number       Type             X           Y           Z
 ---------------------------------------------------------------------
      1          6           0       -2.604951   -0.985352    0.477595
      2          6           0       -1.595468   -1.227646    1.396897
      3         16           0       -0.459746   -2.557842    1.073663
      4          6           0       -1.509976   -0.467226    2.564163
      5          6           0        1.043777   -0.455726    0.021717
      6          6           0        1.038330   -1.682104    0.668307
      7          6           0       -3.557585    0.001751    0.697168
      8          6           0       -2.447111    0.539154    2.764444
      9          1           0       -0.596318    0.142670    4.605045
     10          6           0        2.238728    0.147647   -0.319798
     11          6           0        2.246539   -2.297832    0.961919
     12          6           0        3.442101   -1.694718    0.621166
     13          6           0        3.453096   -0.462920   -0.023837
     14          1           0        2.234263    1.106243   -0.827797
     15          1           0        2.253931   -3.248348    1.486346
     16          1           0        4.381679   -2.178238    0.866461
     17          6           0       -3.461673    0.764082    1.856276
     18          1           0       -2.646669   -1.585519   -0.424718
     19          1           0        0.106936    0.032641   -0.224382
     20          1           0       -2.404245    1.146243    3.663282
     21          1           0       -4.192893    1.542008    2.047877
     22         16           0       -0.233558   -0.817463    3.737465
     23          7           0        4.673686    0.159547   -0.368747
     24          6           0        5.732508   -0.612661   -0.896564
     25          6           0        7.045695   -0.377960   -0.499452
     26          6           0        5.475865   -1.622329   -1.819567
     27          6           0        8.078745   -1.133154   -1.024558
     28          6           0        6.512871   -2.384632   -2.326214
     29          6           0        7.820306   -2.143178   -1.936900
     30          1           0        7.251646    0.403669    0.224060
     31          1           0        4.454830   -1.807304   -2.136118
     32          1           0        9.097402   -0.936530   -0.704866
     33          1           0        6.295127   -3.169013   -3.044416
     34          1           0        8.632202   -2.738403   -2.341339
     35          6           0        4.837054    1.548147   -0.168533
     36          6           0        5.516065    2.321618   -1.105787
     37          6           0        4.319017    2.163542    0.967486
     38          6           0        5.679987    3.679833   -0.902534
     39          6           0        4.472338    3.525567    1.154010
     40          6           0        5.156657    4.292005    0.224805
     41          1           0        5.917204    1.848815   -1.995947
     42          1           0        3.791670    1.566068    1.703651
     43          1           0        6.213214    4.268058   -1.642948
     44          1           0        4.061647    3.989730    2.045325
     45          1           0        5.281223    5.358830    0.377899
     46          7           0       -4.591369    0.225236   -0.235572
     47          6           0       -4.996809    1.544618   -0.539366
     48          6           0       -6.345932    1.849462   -0.693639
     49          6           0       -4.053605    2.557013   -0.688173
     50          6           0       -6.738551    3.140118   -0.998819
     51          6           0       -4.455920    3.848924   -0.975713
     52          6           0       -5.798707    4.148587   -1.137139
     53          1           0       -7.085839    1.064984   -0.575406
     54          1           0       -2.999778    2.324624   -0.576668
     55          1           0       -7.794748    3.361033   -1.117399
     56          1           0       -3.707423    4.627077   -1.088273
     57          1           0       -6.110711    5.161215   -1.369943
     58          6           0       -5.228462   -0.872905   -0.859345
     59          6           0       -5.548183   -0.824769   -2.212595
     60          6           0       -5.541916   -2.014931   -0.129127
     61          6           0       -6.178047   -1.897088   -2.818017
     62          6           0       -6.155123   -3.090236   -0.746513
     63          6           0       -6.481192   -3.037227   -2.091754
     64          1           0       -5.300925    0.061617   -2.787177
     65          1           0       -5.299559   -2.056134    0.927579
     66          1           0       -6.421719   -1.844307   -3.874525
     67          1           0       -6.390696   -3.975287   -0.163884
     68          1           0       -6.967632   -3.879890   -2.571608
 ---------------------------------------------------------------------

 SCF Done:  E(ULC-wHPBE) =  -2293.15428201     A.U. after   33 cycles
 SCF Done:  E(ULC-wHPBE) =  -2293.15980362     a.u. after   14 cycles

 The electronic state is 2-A.
 Alpha  occ. eigenvalues --  -88.33128 -88.30279 -14.33875 -14.21304 -10.19617
 Alpha  occ. eigenvalues --  -10.19134 -10.19092 -10.17768 -10.15181 -10.15165
 Alpha  occ. eigenvalues --  -10.14601 -10.14566 -10.14551 -10.14508 -10.14208
 Alpha  occ. eigenvalues --  -10.14141 -10.14139 -10.14062 -10.13742 -10.13672
 Alpha  occ. eigenvalues --  -10.13662 -10.13511 -10.13502 -10.13447 -10.13441
 Alpha  occ. eigenvalues --  -10.11653 -10.11485 -10.10507 -10.10375 -10.09886
 Alpha  occ. eigenvalues --  -10.07435 -10.07387 -10.07146 -10.07114 -10.07068
 Alpha  occ. eigenvalues --  -10.07041 -10.07039 -10.06978 -10.06732 -10.06552
 Alpha  occ. eigenvalues --   -7.92248  -7.89591  -5.94415  -5.93903  -5.93279
 Alpha  occ. eigenvalues --   -5.91763  -5.91274  -5.90520  -1.18863  -1.09308
 Alpha  occ. eigenvalues --   -1.06098  -1.05113  -1.03552  -1.02300  -0.98055
 Alpha  occ. eigenvalues --   -0.97939  -0.96676  -0.95751  -0.94258  -0.94030
 Alpha  occ. eigenvalues --   -0.93461  -0.93434  -0.93036  -0.90699  -0.88330
 Alpha  occ. eigenvalues --   -0.87646  -0.86874  -0.86659  -0.86091  -0.83366
 Alpha  occ. eigenvalues --   -0.82977  -0.81986  -0.80850  -0.79757  -0.79302
 Alpha  occ. eigenvalues --   -0.77283  -0.76740  -0.75910  -0.74617  -0.74300
 Alpha  occ. eigenvalues --   -0.74146  -0.73085  -0.72969  -0.70932  -0.69501
 Alpha  occ. eigenvalues --   -0.68639  -0.68003  -0.67932  -0.67362  -0.65787
 Alpha  occ. eigenvalues --   -0.65430  -0.64803  -0.64607  -0.63454  -0.63219
 Alpha  occ. eigenvalues --   -0.62985  -0.62864  -0.62248  -0.61829  -0.61593
 Alpha  occ. eigenvalues --   -0.61462  -0.60758  -0.60103  -0.59432  -0.59122
 Alpha  occ. eigenvalues --   -0.58905  -0.58611  -0.57640  -0.57421  -0.56926
 Alpha  occ. eigenvalues --   -0.56569  -0.55941  -0.55797  -0.55604  -0.55130
 Alpha  occ. eigenvalues --   -0.55024  -0.54920  -0.54696  -0.53903  -0.53466
 Alpha  occ. eigenvalues --   -0.52967  -0.52505  -0.52022  -0.51639  -0.50536
 Alpha  occ. eigenvalues --   -0.50265  -0.49104  -0.48489  -0.48136  -0.47639
 Alpha  occ. eigenvalues --   -0.47285  -0.47129  -0.46977  -0.46926  -0.45837
 Alpha  occ. eigenvalues --   -0.45641  -0.43847  -0.43466  -0.42211  -0.40140
 Alpha  occ. eigenvalues --   -0.39632  -0.39297  -0.39142  -0.38371  -0.32273
 Alpha virt. eigenvalues --   -0.10050  -0.09629  -0.09487  -0.07479  -0.06988
 Alpha virt. eigenvalues --   -0.06267  -0.05281  -0.04795  -0.02656  -0.01868
 Alpha virt. eigenvalues --   -0.01337  -0.00527  -0.00441   0.00494   0.01294

  Beta  occ. eigenvalues --  -88.33086 -88.30279 -14.33059 -14.21304 -10.19624
  Beta  occ. eigenvalues --  -10.19199 -10.19156 -10.17577 -10.15048 -10.15035
  Beta  occ. eigenvalues --  -10.14459 -10.14426 -10.14415 -10.14374 -10.14197
  Beta  occ. eigenvalues --  -10.14188 -10.14139 -10.14110 -10.13664 -10.13608
  Beta  occ. eigenvalues --  -10.13573 -10.13549 -10.13541 -10.13510 -10.13484
  Beta  occ. eigenvalues --  -10.11653 -10.11485 -10.10508 -10.10371 -10.09879
  Beta  occ. eigenvalues --  -10.07435 -10.07387 -10.07146 -10.07114 -10.07068
  Beta  occ. eigenvalues --  -10.07041 -10.07039 -10.06978 -10.06732 -10.06552
  Beta  occ. eigenvalues --   -7.92206  -7.89591  -5.94390  -5.93876  -5.93161
  Beta  occ. eigenvalues --   -5.91763  -5.91274  -5.90520  -1.17829  -1.09308
  Beta  occ. eigenvalues --   -1.05853  -1.04931  -1.03307  -1.02216  -0.97939
  Beta  occ. eigenvalues --   -0.97821  -0.96640  -0.95574  -0.94120  -0.93895
  Beta  occ. eigenvalues --   -0.93443  -0.93298  -0.92894  -0.90300  -0.88283
  Beta  occ. eigenvalues --   -0.87642  -0.86779  -0.86658  -0.86034  -0.83124
  Beta  occ. eigenvalues --   -0.82921  -0.81786  -0.80582  -0.79593  -0.79168
  Beta  occ. eigenvalues --   -0.77240  -0.76612  -0.75882  -0.74607  -0.74149
  Beta  occ. eigenvalues --   -0.73997  -0.73063  -0.72960  -0.70895  -0.69341
  Beta  occ. eigenvalues --   -0.68306  -0.67869  -0.67425  -0.67353  -0.65660
  Beta  occ. eigenvalues --   -0.65277  -0.64739  -0.64556  -0.63362  -0.63176
  Beta  occ. eigenvalues --   -0.62833  -0.62732  -0.62163  -0.61710  -0.61568
  Beta  occ. eigenvalues --   -0.61385  -0.60752  -0.59751  -0.59195  -0.58867
  Beta  occ. eigenvalues --   -0.58656  -0.58159  -0.57637  -0.57339  -0.56880
  Beta  occ. eigenvalues --   -0.56545  -0.55846  -0.55509  -0.55162  -0.55097
  Beta  occ. eigenvalues --   -0.54914  -0.54711  -0.54645  -0.53678  -0.53364
  Beta  occ. eigenvalues --   -0.52621  -0.52157  -0.51880  -0.51619  -0.50476
  Beta  occ. eigenvalues --   -0.49533  -0.49030  -0.48478  -0.47945  -0.47238
  Beta  occ. eigenvalues --   -0.47055  -0.46857  -0.46731  -0.46226  -0.45283
  Beta  occ. eigenvalues --   -0.45222  -0.43839  -0.42973  -0.40150  -0.39812
  Beta  occ. eigenvalues --   -0.39402  -0.39136  -0.38361  -0.32256
  Beta virt. eigenvalues --   -0.23450  -0.09326  -0.09296  -0.08863  -0.06965
  Beta virt. eigenvalues --   -0.06535  -0.06148  -0.04828  -0.04008  -0.02650
  Beta virt. eigenvalues --   -0.01855  -0.01264  -0.00475  -0.00409   0.00568

 Mulliken charges and spin densities:
               1          2
     1  C   -0.052207   0.003109
     2  C   -0.277036  -0.002343
     3  S    0.164861   0.085022
     4  C   -0.019663   0.008041
     5  C    0.030036  -0.057544
     6  C   -0.216366   0.135941
     7  C   -0.045994  -0.001683
     8  C   -0.031142  -0.002445
     9  H    0.108311  -0.000272
    10  C   -0.091129   0.089063
    11  C   -0.095858  -0.054037
    12  C   -0.073499   0.091421
    13  C   -0.086275   0.013519
    14  H    0.178325  -0.003834
    15  H    0.163670   0.002164
    16  H    0.180380  -0.004129
    17  C   -0.134064   0.005461
    18  H    0.168303   0.000254
    19  H    0.184258   0.002354
    20  H    0.128471   0.000220
    21  H    0.171385  -0.000241
    22  S   -0.038281  -0.000257
    23  N    0.082898   0.364377
    24  C   -0.073245  -0.030860
    25  C   -0.096762   0.098722
    26  C   -0.093333   0.099154
    27  C   -0.108945  -0.061002
    28  C   -0.109528  -0.063487
    29  C   -0.071435   0.128105
    30  H    0.185313  -0.004077
    31  H    0.182158  -0.004127
    32  H    0.149279   0.002896
    33  H    0.149100   0.003089
    34  H    0.152235  -0.006322
    35  C   -0.072925  -0.031854
    36  C   -0.100406   0.100094
    37  C   -0.087498   0.100703
    38  C   -0.109088  -0.061983
    39  C   -0.111497  -0.064264
    40  C   -0.071788   0.129491
    41  H    0.185945  -0.004120
    42  H    0.185718  -0.004219
    43  H    0.149130   0.002903
    44  H    0.147357   0.003137
    45  H    0.151496  -0.006395
    46  N   -0.015602   0.000232
    47  C   -0.079038   0.000025
    48  C   -0.102079  -0.000034
    49  C   -0.101130  -0.000053
    50  C   -0.116894   0.000038
    51  C   -0.118619  -0.000008
    52  C   -0.097904   0.000015
    53  H    0.163289   0.000001
    54  H    0.141168   0.000027
    55  H    0.122498  -0.000001
    56  H    0.108410  -0.000001
    57  H    0.120048   0.000000
    58  C   -0.060896  -0.000021
    59  C   -0.116182   0.000016
    60  C   -0.114633  -0.000040
    61  C   -0.112445   0.000003
    62  C   -0.112889   0.000052
    63  C   -0.103931   0.000004
    64  H    0.156980  -0.000001
    65  H    0.149728   0.000006
    66  H    0.119442   0.000001
    67  H    0.119243  -0.000002
    68  H    0.120772  -0.000000
 Sum of Mulliken charges =   1.00000   1.00000

 Dipole moment (field-independent basis, Debye):
    X=             15.4180    Y=              2.3210    Z=             -1.1396  Tot=             15.6333
 Quadrupole moment (field-independent basis, Debye-Ang):
   XX=            -89.4225   YY=           -198.4229   ZZ=           -221.9354
   XY=              2.1595   XZ=            -13.7810   YZ=             10.2837

 Normal termination of Gaussian 16 at Thu Jan 28 22:02:31 2021.
