 Gaussian 16, Revision A.03,
 Gaussian 16:  EM64L-G16RevA.03 25-Dec-2016

 ----------------------------------------------------------------------
 #P LC-wHPBE/TZVP iop(3/107=0222700000, 3/108=0222700000) scf=(conver=6
 ,fermi,ndamp=35,noincfock,novaracc,vshift=500,xqc)
 ----------------------------------------------------------------------

 -------------
 H28 C36 S2 N2
 -------------
 Symbolic Z-matrix:
 Charge =  1 Multiplicity = 2

                         Standard orientation:
 ---------------------------------------------------------------------
 Center     Atomic      Atomic             Coordinates (Angstroms)
 Number     Number       Type             X           Y           Z
 ---------------------------------------------------------------------
      1          6           0       -2.604951   -0.985352    0.477595
      2          6           0       -1.595468   -1.227646    1.396897
      3         16           0       -0.459746   -2.557842    1.073663
      4          6           0       -1.509976   -0.467226    2.564163
      5          6           0        1.043777   -0.455726    0.021717
      6          6           0        1.038330   -1.682104    0.668307
      7          6           0       -3.557585    0.001751    0.697168
      8          6           0       -2.447111    0.539154    2.764444
      9          1           0       -0.596318    0.142670    4.605045
     10          6           0        2.238728    0.147647   -0.319798
     11          6           0        2.246539   -2.297832    0.961919
     12          6           0        3.442101   -1.694718    0.621166
     13          6           0        3.453096   -0.462920   -0.023837
     14          1           0        2.234263    1.106243   -0.827797
     15          1           0        2.253931   -3.248348    1.486346
     16          1           0        4.381679   -2.178238    0.866461
     17          6           0       -3.461673    0.764082    1.856276
     18          1           0       -2.646669   -1.585519   -0.424718
     19          1           0        0.106936    0.032641   -0.224382
     20          1           0       -2.404245    1.146243    3.663282
     21          1           0       -4.192893    1.542008    2.047877
     22         16           0       -0.233558   -0.817463    3.737465
     23          7           0        4.673686    0.159547   -0.368747
     24          6           0        5.732508   -0.612661   -0.896564
     25          6           0        7.045695   -0.377960   -0.499452
     26          6           0        5.475865   -1.622329   -1.819567
     27          6           0        8.078745   -1.133154   -1.024558
     28          6           0        6.512871   -2.384632   -2.326214
     29          6           0        7.820306   -2.143178   -1.936900
     30          1           0        7.251646    0.403669    0.224060
     31          1           0        4.454830   -1.807304   -2.136118
     32          1           0        9.097402   -0.936530   -0.704866
     33          1           0        6.295127   -3.169013   -3.044416
     34          1           0        8.632202   -2.738403   -2.341339
     35          6           0        4.837054    1.548147   -0.168533
     36          6           0        5.516065    2.321618   -1.105787
     37          6           0        4.319017    2.163542    0.967486
     38          6           0        5.679987    3.679833   -0.902534
     39          6           0        4.472338    3.525567    1.154010
     40          6           0        5.156657    4.292005    0.224805
     41          1           0        5.917204    1.848815   -1.995947
     42          1           0        3.791670    1.566068    1.703651
     43          1           0        6.213214    4.268058   -1.642948
     44          1           0        4.061647    3.989730    2.045325
     45          1           0        5.281223    5.358830    0.377899
     46          7           0       -4.591369    0.225236   -0.235572
     47          6           0       -4.996809    1.544618   -0.539366
     48          6           0       -6.345932    1.849462   -0.693639
     49          6           0       -4.053605    2.557013   -0.688173
     50          6           0       -6.738551    3.140118   -0.998819
     51          6           0       -4.455920    3.848924   -0.975713
     52          6           0       -5.798707    4.148587   -1.137139
     53          1           0       -7.085839    1.064984   -0.575406
     54          1           0       -2.999778    2.324624   -0.576668
     55          1           0       -7.794748    3.361033   -1.117399
     56          1           0       -3.707423    4.627077   -1.088273
     57          1           0       -6.110711    5.161215   -1.369943
     58          6           0       -5.228462   -0.872905   -0.859345
     59          6           0       -5.548183   -0.824769   -2.212595
     60          6           0       -5.541916   -2.014931   -0.129127
     61          6           0       -6.178047   -1.897088   -2.818017
     62          6           0       -6.155123   -3.090236   -0.746513
     63          6           0       -6.481192   -3.037227   -2.091754
     64          1           0       -5.300925    0.061617   -2.787177
     65          1           0       -5.299559   -2.056134    0.927579
     66          1           0       -6.421719   -1.844307   -3.874525
     67          1           0       -6.390696   -3.975287   -0.163884
     68          1           0       -6.967632   -3.879890   -2.571608
 ---------------------------------------------------------------------

 SCF Done:  E(ULC-wHPBE) =  -2293.16101081     A.U. after   33 cycles
 SCF Done:  E(ULC-wHPBE) =  -2293.16101233     a.u. after    2 cycles

 The electronic state is 2-A.
 Alpha  occ. eigenvalues --  -88.33372 -88.33087 -14.29627 -14.25194 -10.18324
 Alpha  occ. eigenvalues --  -10.18234 -10.16955 -10.16770 -10.16621 -10.15558
 Alpha  occ. eigenvalues --  -10.15003 -10.14430 -10.14079 -10.14070 -10.14036
 Alpha  occ. eigenvalues --  -10.13796 -10.12378 -10.12142 -10.12130 -10.12043
 Alpha  occ. eigenvalues --  -10.11785 -10.11642 -10.11600 -10.11534 -10.11484
 Alpha  occ. eigenvalues --  -10.11423 -10.11394 -10.11337 -10.11331 -10.11313
 Alpha  occ. eigenvalues --  -10.09658 -10.09463 -10.09381 -10.09371 -10.09237
 Alpha  occ. eigenvalues --  -10.09236 -10.09026 -10.09015 -10.08949 -10.08702
 Alpha  occ. eigenvalues --   -7.92616  -7.92237  -5.94765  -5.94412  -5.94263
 Alpha  occ. eigenvalues --   -5.93898  -5.93622  -5.93224  -1.15781  -1.12216
 Alpha  occ. eigenvalues --   -1.06067  -1.02823  -1.02750  -1.01504  -1.00177
 Alpha  occ. eigenvalues --   -0.98954  -0.97697  -0.96718  -0.93492  -0.92605
 Alpha  occ. eigenvalues --   -0.92072  -0.91554  -0.91286  -0.90743  -0.90117
 Alpha  occ. eigenvalues --   -0.89413  -0.88741  -0.88258  -0.87127  -0.85030
 Alpha  occ. eigenvalues --   -0.81314  -0.80656  -0.79328  -0.79018  -0.78331
 Alpha  occ. eigenvalues --   -0.77673  -0.76980  -0.76684  -0.75318  -0.75060
 Alpha  occ. eigenvalues --   -0.74246  -0.72740  -0.72046  -0.71910  -0.69872
 Alpha  occ. eigenvalues --   -0.69348  -0.68458  -0.67560  -0.65877  -0.65588
 Alpha  occ. eigenvalues --   -0.65518  -0.64652  -0.63868  -0.63746  -0.62918
 Alpha  occ. eigenvalues --   -0.62747  -0.61899  -0.61547  -0.61147  -0.61015
 Alpha  occ. eigenvalues --   -0.60816  -0.60144  -0.59917  -0.59503  -0.59340
 Alpha  occ. eigenvalues --   -0.59030  -0.58707  -0.58563  -0.58281  -0.57427
 Alpha  occ. eigenvalues --   -0.57093  -0.56965  -0.56778  -0.56372  -0.55922
 Alpha  occ. eigenvalues --   -0.54531  -0.54255  -0.53753  -0.53531  -0.53064
 Alpha  occ. eigenvalues --   -0.52659  -0.52298  -0.52013  -0.51628  -0.51365
 Alpha  occ. eigenvalues --   -0.51160  -0.50833  -0.50364  -0.49579  -0.48905
 Alpha  occ. eigenvalues --   -0.48521  -0.48269  -0.46165  -0.45178  -0.44790
 Alpha  occ. eigenvalues --   -0.43943  -0.43642  -0.43470  -0.42201  -0.42024
 Alpha  occ. eigenvalues --   -0.41466  -0.41040  -0.40275  -0.37794  -0.34925
 Alpha virt. eigenvalues --   -0.09336  -0.08576  -0.07046  -0.06558  -0.06014
 Alpha virt. eigenvalues --   -0.05570  -0.04656  -0.04487  -0.03391  -0.03161
 Alpha virt. eigenvalues --   -0.03009  -0.02199  -0.00604   0.00429   0.00566

  Beta  occ. eigenvalues --  -88.33342 -88.33054 -14.29131 -14.24934 -10.18325
  Beta  occ. eigenvalues --  -10.18077 -10.16974 -10.16810 -10.16660 -10.15543
  Beta  occ. eigenvalues --  -10.14944 -10.14316 -10.14106 -10.14058 -10.14038
  Beta  occ. eigenvalues --  -10.13819 -10.12294 -10.12060 -10.12051 -10.11962
  Beta  occ. eigenvalues --  -10.11788 -10.11679 -10.11608 -10.11562 -10.11457
  Beta  occ. eigenvalues --  -10.11426 -10.11402 -10.11312 -10.11269 -10.11247
  Beta  occ. eigenvalues --  -10.09613 -10.09420 -10.09391 -10.09336 -10.09256
  Beta  occ. eigenvalues --  -10.09194 -10.09035 -10.08977 -10.08967 -10.08655
  Beta  occ. eigenvalues --   -7.92586  -7.92203  -5.94748  -5.94389  -5.94246
  Beta  occ. eigenvalues --   -5.93878  -5.93537  -5.93131  -1.15181  -1.11907
  Beta  occ. eigenvalues --   -1.05891  -1.02717  -1.02645  -1.01352  -1.00122
  Beta  occ. eigenvalues --   -0.98862  -0.97494  -0.96595  -0.93373  -0.92496
  Beta  occ. eigenvalues --   -0.91972  -0.91513  -0.91207  -0.90627  -0.90063
  Beta  occ. eigenvalues --   -0.89343  -0.88698  -0.88136  -0.86826  -0.84814
  Beta  occ. eigenvalues --   -0.81175  -0.80490  -0.79196  -0.78923  -0.78253
  Beta  occ. eigenvalues --   -0.77566  -0.76888  -0.76597  -0.75267  -0.75006
  Beta  occ. eigenvalues --   -0.74146  -0.72688  -0.71955  -0.71810  -0.69813
  Beta  occ. eigenvalues --   -0.69302  -0.68312  -0.67403  -0.65774  -0.65440
  Beta  occ. eigenvalues --   -0.65339  -0.64547  -0.63738  -0.63613  -0.62800
  Beta  occ. eigenvalues --   -0.62694  -0.61824  -0.61454  -0.61060  -0.60943
  Beta  occ. eigenvalues --   -0.60738  -0.60037  -0.59834  -0.59433  -0.59291
  Beta  occ. eigenvalues --   -0.58976  -0.58591  -0.58459  -0.58170  -0.57352
  Beta  occ. eigenvalues --   -0.56935  -0.56826  -0.56608  -0.56108  -0.55755
  Beta  occ. eigenvalues --   -0.54286  -0.54066  -0.53610  -0.53456  -0.52805
  Beta  occ. eigenvalues --   -0.52530  -0.51988  -0.51905  -0.51360  -0.51290
  Beta  occ. eigenvalues --   -0.51031  -0.50590  -0.50283  -0.49442  -0.48859
  Beta  occ. eigenvalues --   -0.48043  -0.47391  -0.45893  -0.44698  -0.44236
  Beta  occ. eigenvalues --   -0.43606  -0.43485  -0.43270  -0.41909  -0.41233
  Beta  occ. eigenvalues --   -0.40926  -0.40646  -0.38941  -0.31546
  Beta virt. eigenvalues --   -0.24375  -0.08849  -0.08175  -0.06699  -0.06286
  Beta virt. eigenvalues --   -0.05818  -0.05291  -0.04385  -0.04304  -0.03260
  Beta virt. eigenvalues --   -0.02869  -0.02471  -0.02050  -0.00324   0.00607

 Mulliken charges and spin densities:
               1          2
     1  C   -0.033646   0.021025
     2  C   -0.295413  -0.034056
     3  S    0.152952   0.071183
     4  C   -0.009422   0.108130
     5  C    0.024892  -0.011718
     6  C   -0.222229   0.044137
     7  C   -0.045563   0.012075
     8  C   -0.023114  -0.040101
     9  H    0.113293  -0.001694
    10  C   -0.109870   0.015285
    11  C   -0.095551  -0.013289
    12  C   -0.088665   0.029041
    13  C   -0.079059   0.016447
    14  H    0.164450  -0.000549
    15  H    0.149739   0.000690
    16  H    0.171951  -0.001432
    17  C   -0.127077   0.079777
    18  H    0.180115  -0.000289
    19  H    0.148392   0.000362
    20  H    0.144440   0.001018
    21  H    0.183056  -0.003736
    22  S    0.050157   0.067036
    23  N    0.013089   0.119708
    24  C   -0.058629  -0.011511
    25  C   -0.111371   0.031363
    26  C   -0.109900   0.031458
    27  C   -0.112287  -0.019198
    28  C   -0.112463  -0.020467
    29  C   -0.094172   0.041137
    30  H    0.169105  -0.001298
    31  H    0.157908  -0.001366
    32  H    0.129969   0.000902
    33  H    0.127150   0.001028
    34  H    0.130954  -0.002053
    35  C   -0.057621  -0.011444
    36  C   -0.115128   0.032226
    37  C   -0.104436   0.032479
    38  C   -0.112624  -0.019782
    39  C   -0.114202  -0.020695
    40  C   -0.096169   0.042357
    41  H    0.171378  -0.001323
    42  H    0.157281  -0.001806
    43  H    0.129957   0.000899
    44  H    0.122662   0.001088
    45  H    0.129322  -0.002111
    46  N    0.042656   0.227437
    47  C   -0.095407  -0.020108
    48  C   -0.091415   0.058165
    49  C   -0.090830   0.059119
    50  C   -0.114883  -0.035761
    51  C   -0.118562  -0.038511
    52  C   -0.078613   0.076666
    53  H    0.177570  -0.002438
    54  H    0.173841  -0.002029
    55  H    0.140606   0.001726
    56  H    0.134368   0.001895
    57  H    0.141556  -0.003792
    58  C   -0.072867  -0.019737
    59  C   -0.101554   0.059310
    60  C   -0.097767   0.059099
    61  C   -0.109727  -0.036862
    62  C   -0.110409  -0.037399
    63  C   -0.084412   0.077506
    64  H    0.174151  -0.002510
    65  H    0.168067  -0.002483
    66  H    0.139357   0.001760
    67  H    0.138885   0.001852
    68  H    0.141788  -0.003834
 Sum of Mulliken charges =   1.00000   1.00000

 Dipole moment (field-independent basis, Debye):
    X=             -5.4730    Y=              2.1728    Z=              0.1320  Tot=              5.8900
 Quadrupole moment (field-independent basis, Debye-Ang):
   XX=           -101.4174   YY=           -199.1353   ZZ=           -214.4846
   XY=             -4.0909   XZ=              3.6093   YZ=              7.0776

 Normal termination of Gaussian 16 at Fri Jan 29 11:39:09 2021.
