 Gaussian 16, Revision A.03,
 Gaussian 16:  EM64L-G16RevA.03 25-Dec-2016

 ----------------------------------------------------------------------
 #P LC-wHPBE/TZVP iop(3/107=0219200000, 3/108=0219200000) scf=(conver=6
 ,fermi,ndamp=35,noincfock,novaracc,vshift=500,xqc)
 ----------------------------------------------------------------------

 -------------
 H28 C36 S2 N2
 -------------
 Symbolic Z-matrix:
 Charge =  0 Multiplicity = 1

                         Standard orientation:
 ---------------------------------------------------------------------
 Center     Atomic      Atomic             Coordinates (Angstroms)
 Number     Number       Type             X           Y           Z
 ---------------------------------------------------------------------
      1          6           0       -2.604951   -0.985352    0.477595
      2          6           0       -1.595468   -1.227646    1.396897
      3         16           0       -0.459746   -2.557842    1.073663
      4          6           0       -1.509976   -0.467226    2.564163
      5          6           0        1.043777   -0.455726    0.021717
      6          6           0        1.038330   -1.682104    0.668307
      7          6           0       -3.557585    0.001751    0.697168
      8          6           0       -2.447111    0.539154    2.764444
      9          1           0       -0.596318    0.142670    4.605045
     10          6           0        2.238728    0.147647   -0.319798
     11          6           0        2.246539   -2.297832    0.961919
     12          6           0        3.442101   -1.694718    0.621166
     13          6           0        3.453096   -0.462920   -0.023837
     14          1           0        2.234263    1.106243   -0.827797
     15          1           0        2.253931   -3.248348    1.486346
     16          1           0        4.381679   -2.178238    0.866461
     17          6           0       -3.461673    0.764082    1.856276
     18          1           0       -2.646669   -1.585519   -0.424718
     19          1           0        0.106936    0.032641   -0.224382
     20          1           0       -2.404245    1.146243    3.663282
     21          1           0       -4.192893    1.542008    2.047877
     22         16           0       -0.233558   -0.817463    3.737465
     23          7           0        4.673686    0.159547   -0.368747
     24          6           0        5.732508   -0.612661   -0.896564
     25          6           0        7.045695   -0.377960   -0.499452
     26          6           0        5.475865   -1.622329   -1.819567
     27          6           0        8.078745   -1.133154   -1.024558
     28          6           0        6.512871   -2.384632   -2.326214
     29          6           0        7.820306   -2.143178   -1.936900
     30          1           0        7.251646    0.403669    0.224060
     31          1           0        4.454830   -1.807304   -2.136118
     32          1           0        9.097402   -0.936530   -0.704866
     33          1           0        6.295127   -3.169013   -3.044416
     34          1           0        8.632202   -2.738403   -2.341339
     35          6           0        4.837054    1.548147   -0.168533
     36          6           0        5.516065    2.321618   -1.105787
     37          6           0        4.319017    2.163542    0.967486
     38          6           0        5.679987    3.679833   -0.902534
     39          6           0        4.472338    3.525567    1.154010
     40          6           0        5.156657    4.292005    0.224805
     41          1           0        5.917204    1.848815   -1.995947
     42          1           0        3.791670    1.566068    1.703651
     43          1           0        6.213214    4.268058   -1.642948
     44          1           0        4.061647    3.989730    2.045325
     45          1           0        5.281223    5.358830    0.377899
     46          7           0       -4.591369    0.225236   -0.235572
     47          6           0       -4.996809    1.544618   -0.539366
     48          6           0       -6.345932    1.849462   -0.693639
     49          6           0       -4.053605    2.557013   -0.688173
     50          6           0       -6.738551    3.140118   -0.998819
     51          6           0       -4.455920    3.848924   -0.975713
     52          6           0       -5.798707    4.148587   -1.137139
     53          1           0       -7.085839    1.064984   -0.575406
     54          1           0       -2.999778    2.324624   -0.576668
     55          1           0       -7.794748    3.361033   -1.117399
     56          1           0       -3.707423    4.627077   -1.088273
     57          1           0       -6.110711    5.161215   -1.369943
     58          6           0       -5.228462   -0.872905   -0.859345
     59          6           0       -5.548183   -0.824769   -2.212595
     60          6           0       -5.541916   -2.014931   -0.129127
     61          6           0       -6.178047   -1.897088   -2.818017
     62          6           0       -6.155123   -3.090236   -0.746513
     63          6           0       -6.481192   -3.037227   -2.091754
     64          1           0       -5.300925    0.061617   -2.787177
     65          1           0       -5.299559   -2.056134    0.927579
     66          1           0       -6.421719   -1.844307   -3.874525
     67          1           0       -6.390696   -3.975287   -0.163884
     68          1           0       -6.967632   -3.879890   -2.571608
 ---------------------------------------------------------------------

 SCF Done:  E(RLC-wHPBE) =  -2293.40221745     A.U. after   16 cycles

 The electronic state is 1-A.
 Alpha  occ. eigenvalues --  -88.21829 -88.21486 -14.14580 -14.14011 -10.05814
 Alpha  occ. eigenvalues --  -10.05731 -10.05533 -10.05404 -10.05172 -10.05049
 Alpha  occ. eigenvalues --  -10.05032 -10.04988 -10.04114 -10.02496 -10.02051
 Alpha  occ. eigenvalues --  -10.02050 -10.01453 -10.01427 -10.01328 -10.01289
 Alpha  occ. eigenvalues --  -10.01280 -10.01276 -10.01204 -10.01139 -10.01053
 Alpha  occ. eigenvalues --  -10.01035 -10.01011 -10.01001 -10.00997 -10.00991
 Alpha  occ. eigenvalues --  -10.00981 -10.00971 -10.00942 -10.00805 -10.00682
 Alpha  occ. eigenvalues --  -10.00674 -10.00667 -10.00662 -10.00505 -10.00485
 Alpha  occ. eigenvalues --   -7.81121  -7.80697  -5.83299  -5.82897  -5.82807
 Alpha  occ. eigenvalues --   -5.82398  -5.82045  -5.81602  -1.02567  -1.01984
 Alpha  occ. eigenvalues --   -0.94133  -0.92227  -0.91973  -0.91556  -0.90597
 Alpha  occ. eigenvalues --   -0.89915  -0.86249  -0.85289  -0.82544  -0.82029
 Alpha  occ. eigenvalues --   -0.81854  -0.81266  -0.80750  -0.80718  -0.80514
 Alpha  occ. eigenvalues --   -0.80336  -0.79622  -0.78305  -0.76086  -0.74657
 Alpha  occ. eigenvalues --   -0.70028  -0.69482  -0.69278  -0.68748  -0.67739
 Alpha  occ. eigenvalues --   -0.67342  -0.67009  -0.66605  -0.66460  -0.65756
 Alpha  occ. eigenvalues --   -0.63933  -0.63273  -0.61175  -0.60937  -0.60684
 Alpha  occ. eigenvalues --   -0.60191  -0.57326  -0.56660  -0.56308  -0.54976
 Alpha  occ. eigenvalues --   -0.54818  -0.54315  -0.54026  -0.53660  -0.52858
 Alpha  occ. eigenvalues --   -0.52237  -0.51985  -0.51793  -0.51016  -0.50824
 Alpha  occ. eigenvalues --   -0.50584  -0.50229  -0.50002  -0.49918  -0.49425
 Alpha  occ. eigenvalues --   -0.49214  -0.49087  -0.48929  -0.48695  -0.47982
 Alpha  occ. eigenvalues --   -0.47296  -0.46218  -0.46113  -0.45672  -0.45501
 Alpha  occ. eigenvalues --   -0.45272  -0.45161  -0.43531  -0.43282  -0.42822
 Alpha  occ. eigenvalues --   -0.42504  -0.42349  -0.42036  -0.41520  -0.41465
 Alpha  occ. eigenvalues --   -0.41002  -0.40877  -0.40623  -0.40376  -0.39751
 Alpha  occ. eigenvalues --   -0.38484  -0.36992  -0.35669  -0.34437  -0.34222
 Alpha  occ. eigenvalues --   -0.33925  -0.33803  -0.33303  -0.33097  -0.32690
 Alpha  occ. eigenvalues --   -0.32684  -0.30668  -0.29748  -0.25449  -0.24958
 Alpha virt. eigenvalues --    0.01839   0.02585   0.03148   0.03321   0.03427
 Alpha virt. eigenvalues --    0.03717   0.04597   0.05446   0.05651   0.05844
 Alpha virt. eigenvalues --    0.07051   0.07600   0.08418   0.10283   0.10442

 Mulliken charges:
               1
     1  C   -0.058127
     2  C   -0.264964
     3  S    0.069536
     4  C   -0.017993
     5  C    0.015464
     6  C   -0.203968
     7  C   -0.032615
     8  C   -0.033359
     9  H    0.088813
    10  C   -0.119975
    11  C   -0.109030
    12  C   -0.097225
    13  C   -0.071437
    14  H    0.146132
    15  H    0.123989
    16  H    0.147680
    17  C   -0.145742
    18  H    0.155206
    19  H    0.147807
    20  H    0.112599
    21  H    0.154699
    22  S   -0.026204
    23  N   -0.016778
    24  C   -0.052502
    25  C   -0.119121
    26  C   -0.114196
    27  C   -0.113073
    28  C   -0.113140
    29  C   -0.107266
    30  H    0.154488
    31  H    0.152869
    32  H    0.107328
    33  H    0.107891
    34  H    0.106292
    35  C   -0.051723
    36  C   -0.123503
    37  C   -0.109614
    38  C   -0.112915
    39  C   -0.115071
    40  C   -0.107711
    41  H    0.154747
    42  H    0.157509
    43  H    0.107144
    44  H    0.106361
    45  H    0.105602
    46  N   -0.016314
    47  C   -0.082369
    48  C   -0.105924
    49  C   -0.101658
    50  C   -0.117292
    51  C   -0.120963
    52  C   -0.100415
    53  H    0.154799
    54  H    0.161433
    55  H    0.109000
    56  H    0.108044
    57  H    0.107913
    58  C   -0.060818
    59  C   -0.113998
    60  C   -0.108132
    61  C   -0.111115
    62  C   -0.111671
    63  C   -0.105965
    64  H    0.152723
    65  H    0.151411
    66  H    0.108890
    67  H    0.109480
    68  H    0.108034
 Sum of Mulliken charges =  -0.00000

 Dipole moment (field-independent basis, Debye):
    X=             -0.9741    Y=              2.0644    Z=             -0.1113  Tot=              2.2853
 Quadrupole moment (field-independent basis, Debye-Ang):
   XX=           -228.2771   YY=           -235.4893   ZZ=           -238.4152
   XY=             -1.8351   XZ=             -0.3221   YZ=              7.1158

 Normal termination of Gaussian 16 at Thu Jan 28 17:25:19 2021.
