 Gaussian 16, Revision A.03,
 Gaussian 16:  EM64L-G16RevA.03 25-Dec-2016

 ----------------------------------------------------------------------
 #P LC-wHPBE/TZVP iop(3/107=0221200000, 3/108=0221200000) scf=(conver=6
 ,fermi,ndamp=35,noincfock,novaracc,vshift=500,xqc)
 ----------------------------------------------------------------------

 -------------
 H28 C36 S2 N2
 -------------
 Symbolic Z-matrix:
 Charge =  0 Multiplicity = 1

                         Standard orientation:
 ---------------------------------------------------------------------
 Center     Atomic      Atomic             Coordinates (Angstroms)
 Number     Number       Type             X           Y           Z
 ---------------------------------------------------------------------
      1          6           0       -2.604951   -0.985352    0.477595
      2          6           0       -1.595468   -1.227646    1.396897
      3         16           0       -0.459746   -2.557842    1.073663
      4          6           0       -1.509976   -0.467226    2.564163
      5          6           0        1.043777   -0.455726    0.021717
      6          6           0        1.038330   -1.682104    0.668307
      7          6           0       -3.557585    0.001751    0.697168
      8          6           0       -2.447111    0.539154    2.764444
      9          1           0       -0.596318    0.142670    4.605045
     10          6           0        2.238728    0.147647   -0.319798
     11          6           0        2.246539   -2.297832    0.961919
     12          6           0        3.442101   -1.694718    0.621166
     13          6           0        3.453096   -0.462920   -0.023837
     14          1           0        2.234263    1.106243   -0.827797
     15          1           0        2.253931   -3.248348    1.486346
     16          1           0        4.381679   -2.178238    0.866461
     17          6           0       -3.461673    0.764082    1.856276
     18          1           0       -2.646669   -1.585519   -0.424718
     19          1           0        0.106936    0.032641   -0.224382
     20          1           0       -2.404245    1.146243    3.663282
     21          1           0       -4.192893    1.542008    2.047877
     22         16           0       -0.233558   -0.817463    3.737465
     23          7           0        4.673686    0.159547   -0.368747
     24          6           0        5.732508   -0.612661   -0.896564
     25          6           0        7.045695   -0.377960   -0.499452
     26          6           0        5.475865   -1.622329   -1.819567
     27          6           0        8.078745   -1.133154   -1.024558
     28          6           0        6.512871   -2.384632   -2.326214
     29          6           0        7.820306   -2.143178   -1.936900
     30          1           0        7.251646    0.403669    0.224060
     31          1           0        4.454830   -1.807304   -2.136118
     32          1           0        9.097402   -0.936530   -0.704866
     33          1           0        6.295127   -3.169013   -3.044416
     34          1           0        8.632202   -2.738403   -2.341339
     35          6           0        4.837054    1.548147   -0.168533
     36          6           0        5.516065    2.321618   -1.105787
     37          6           0        4.319017    2.163542    0.967486
     38          6           0        5.679987    3.679833   -0.902534
     39          6           0        4.472338    3.525567    1.154010
     40          6           0        5.156657    4.292005    0.224805
     41          1           0        5.917204    1.848815   -1.995947
     42          1           0        3.791670    1.566068    1.703651
     43          1           0        6.213214    4.268058   -1.642948
     44          1           0        4.061647    3.989730    2.045325
     45          1           0        5.281223    5.358830    0.377899
     46          7           0       -4.591369    0.225236   -0.235572
     47          6           0       -4.996809    1.544618   -0.539366
     48          6           0       -6.345932    1.849462   -0.693639
     49          6           0       -4.053605    2.557013   -0.688173
     50          6           0       -6.738551    3.140118   -0.998819
     51          6           0       -4.455920    3.848924   -0.975713
     52          6           0       -5.798707    4.148587   -1.137139
     53          1           0       -7.085839    1.064984   -0.575406
     54          1           0       -2.999778    2.324624   -0.576668
     55          1           0       -7.794748    3.361033   -1.117399
     56          1           0       -3.707423    4.627077   -1.088273
     57          1           0       -6.110711    5.161215   -1.369943
     58          6           0       -5.228462   -0.872905   -0.859345
     59          6           0       -5.548183   -0.824769   -2.212595
     60          6           0       -5.541916   -2.014931   -0.129127
     61          6           0       -6.178047   -1.897088   -2.818017
     62          6           0       -6.155123   -3.090236   -0.746513
     63          6           0       -6.481192   -3.037227   -2.091754
     64          1           0       -5.300925    0.061617   -2.787177
     65          1           0       -5.299559   -2.056134    0.927579
     66          1           0       -6.421719   -1.844307   -3.874525
     67          1           0       -6.390696   -3.975287   -0.163884
     68          1           0       -6.967632   -3.879890   -2.571608
 ---------------------------------------------------------------------

 SCF Done:  E(RLC-wHPBE) =  -2293.40635940     A.U. after   16 cycles

 The electronic state is 1-A.
 Alpha  occ. eigenvalues --  -88.21937 -88.21595 -14.14685 -14.14116 -10.05929
 Alpha  occ. eigenvalues --  -10.05846 -10.05648 -10.05518 -10.05286 -10.05163
 Alpha  occ. eigenvalues --  -10.05146 -10.05103 -10.04229 -10.02610 -10.02165
 Alpha  occ. eigenvalues --  -10.02164 -10.01566 -10.01540 -10.01441 -10.01402
 Alpha  occ. eigenvalues --  -10.01393 -10.01389 -10.01316 -10.01251 -10.01165
 Alpha  occ. eigenvalues --  -10.01147 -10.01123 -10.01114 -10.01110 -10.01103
 Alpha  occ. eigenvalues --  -10.01094 -10.01084 -10.01055 -10.00917 -10.00794
 Alpha  occ. eigenvalues --  -10.00786 -10.00780 -10.00774 -10.00618 -10.00597
 Alpha  occ. eigenvalues --   -7.81231  -7.80808  -5.83406  -5.83005  -5.82914
 Alpha  occ. eigenvalues --   -5.82505  -5.82151  -5.81709  -1.02684  -1.02101
 Alpha  occ. eigenvalues --   -0.94254  -0.92346  -0.92092  -0.91675  -0.90715
 Alpha  occ. eigenvalues --   -0.90032  -0.86365  -0.85403  -0.82656  -0.82141
 Alpha  occ. eigenvalues --   -0.81966  -0.81378  -0.80862  -0.80830  -0.80626
 Alpha  occ. eigenvalues --   -0.80448  -0.79732  -0.78413  -0.76192  -0.74762
 Alpha  occ. eigenvalues --   -0.70129  -0.69582  -0.69377  -0.68848  -0.67839
 Alpha  occ. eigenvalues --   -0.67442  -0.67109  -0.66704  -0.66559  -0.65854
 Alpha  occ. eigenvalues --   -0.64029  -0.63369  -0.61268  -0.61030  -0.60777
 Alpha  occ. eigenvalues --   -0.60282  -0.57416  -0.56749  -0.56397  -0.55063
 Alpha  occ. eigenvalues --   -0.54905  -0.54401  -0.54113  -0.53744  -0.52944
 Alpha  occ. eigenvalues --   -0.52322  -0.52069  -0.51878  -0.51099  -0.50909
 Alpha  occ. eigenvalues --   -0.50667  -0.50311  -0.50084  -0.49999  -0.49508
 Alpha  occ. eigenvalues --   -0.49296  -0.49169  -0.49012  -0.48776  -0.48062
 Alpha  occ. eigenvalues --   -0.47378  -0.46298  -0.46199  -0.45758  -0.45586
 Alpha  occ. eigenvalues --   -0.45357  -0.45239  -0.43605  -0.43356  -0.42896
 Alpha  occ. eigenvalues --   -0.42578  -0.42423  -0.42111  -0.41592  -0.41536
 Alpha  occ. eigenvalues --   -0.41074  -0.40948  -0.40695  -0.40447  -0.39821
 Alpha  occ. eigenvalues --   -0.38554  -0.37058  -0.35732  -0.34494  -0.34278
 Alpha  occ. eigenvalues --   -0.33981  -0.33859  -0.33358  -0.33153  -0.32745
 Alpha  occ. eigenvalues --   -0.32740  -0.30723  -0.29804  -0.25495  -0.25003
 Alpha virt. eigenvalues --    0.01877   0.02623   0.03188   0.03360   0.03467
 Alpha virt. eigenvalues --    0.03757   0.04640   0.05490   0.05695   0.05888
 Alpha virt. eigenvalues --    0.07099   0.07645   0.08463   0.10323   0.10488

 Mulliken charges:
               1
     1  C   -0.058246
     2  C   -0.265346
     3  S    0.069889
     4  C   -0.018313
     5  C    0.015181
     6  C   -0.204200
     7  C   -0.032735
     8  C   -0.033502
     9  H    0.088784
    10  C   -0.120063
    11  C   -0.109227
    12  C   -0.097396
    13  C   -0.071576
    14  H    0.146473
    15  H    0.124278
    16  H    0.148011
    17  C   -0.145923
    18  H    0.155620
    19  H    0.148022
    20  H    0.112895
    21  H    0.155036
    22  S   -0.025954
    23  N   -0.017468
    24  C   -0.052456
    25  C   -0.119353
    26  C   -0.114432
    27  C   -0.113268
    28  C   -0.113337
    29  C   -0.107608
    30  H    0.154802
    31  H    0.153186
    32  H    0.107581
    33  H    0.108144
    34  H    0.106551
    35  C   -0.051674
    36  C   -0.123732
    37  C   -0.109861
    38  C   -0.113110
    39  C   -0.115265
    40  C   -0.108056
    41  H    0.155062
    42  H    0.157830
    43  H    0.107398
    44  H    0.106616
    45  H    0.105862
    46  N   -0.017004
    47  C   -0.082295
    48  C   -0.106159
    49  C   -0.101906
    50  C   -0.117488
    51  C   -0.121146
    52  C   -0.100764
    53  H    0.155116
    54  H    0.161723
    55  H    0.109254
    56  H    0.108300
    57  H    0.108172
    58  C   -0.060765
    59  C   -0.114229
    60  C   -0.108374
    61  C   -0.111315
    62  C   -0.111865
    63  C   -0.106304
    64  H    0.153036
    65  H    0.151725
    66  H    0.109142
    67  H    0.109733
    68  H    0.108292
 Sum of Mulliken charges =  -0.00000

 Dipole moment (field-independent basis, Debye):
    X=             -0.9745    Y=              2.0664    Z=             -0.1125  Tot=              2.2875
 Quadrupole moment (field-independent basis, Debye-Ang):
   XX=           -228.2422   YY=           -235.4655   ZZ=           -238.4000
   XY=             -1.8370   XZ=             -0.3232   YZ=              7.1220

 Normal termination of Gaussian 16 at Fri Jan 29 14:40:27 2021.
