 Gaussian 16, Revision A.03,
 Gaussian 16:  EM64L-G16RevA.03 25-Dec-2016

 ----------------------------------------------------------------------
 #P LC-wHPBE/TZVP iop(3/107=0214900000, 3/108=0214900000) scf=(conver=6
 ,fermi,ndamp=35,noincfock,novaracc,vshift=500,xqc)
 ----------------------------------------------------------------------

 -------------
 H28 C36 S2 N2
 -------------
 Symbolic Z-matrix:
 Charge =  0 Multiplicity = 1

                         Standard orientation:
 ---------------------------------------------------------------------
 Center     Atomic      Atomic             Coordinates (Angstroms)
 Number     Number       Type             X           Y           Z
 ---------------------------------------------------------------------
      1          6           0       -2.604951   -0.985352    0.477595
      2          6           0       -1.595468   -1.227646    1.396897
      3         16           0       -0.459746   -2.557842    1.073663
      4          6           0       -1.509976   -0.467226    2.564163
      5          6           0        1.043777   -0.455726    0.021717
      6          6           0        1.038330   -1.682104    0.668307
      7          6           0       -3.557585    0.001751    0.697168
      8          6           0       -2.447111    0.539154    2.764444
      9          1           0       -0.596318    0.142670    4.605045
     10          6           0        2.238728    0.147647   -0.319798
     11          6           0        2.246539   -2.297832    0.961919
     12          6           0        3.442101   -1.694718    0.621166
     13          6           0        3.453096   -0.462920   -0.023837
     14          1           0        2.234263    1.106243   -0.827797
     15          1           0        2.253931   -3.248348    1.486346
     16          1           0        4.381679   -2.178238    0.866461
     17          6           0       -3.461673    0.764082    1.856276
     18          1           0       -2.646669   -1.585519   -0.424718
     19          1           0        0.106936    0.032641   -0.224382
     20          1           0       -2.404245    1.146243    3.663282
     21          1           0       -4.192893    1.542008    2.047877
     22         16           0       -0.233558   -0.817463    3.737465
     23          7           0        4.673686    0.159547   -0.368747
     24          6           0        5.732508   -0.612661   -0.896564
     25          6           0        7.045695   -0.377960   -0.499452
     26          6           0        5.475865   -1.622329   -1.819567
     27          6           0        8.078745   -1.133154   -1.024558
     28          6           0        6.512871   -2.384632   -2.326214
     29          6           0        7.820306   -2.143178   -1.936900
     30          1           0        7.251646    0.403669    0.224060
     31          1           0        4.454830   -1.807304   -2.136118
     32          1           0        9.097402   -0.936530   -0.704866
     33          1           0        6.295127   -3.169013   -3.044416
     34          1           0        8.632202   -2.738403   -2.341339
     35          6           0        4.837054    1.548147   -0.168533
     36          6           0        5.516065    2.321618   -1.105787
     37          6           0        4.319017    2.163542    0.967486
     38          6           0        5.679987    3.679833   -0.902534
     39          6           0        4.472338    3.525567    1.154010
     40          6           0        5.156657    4.292005    0.224805
     41          1           0        5.917204    1.848815   -1.995947
     42          1           0        3.791670    1.566068    1.703651
     43          1           0        6.213214    4.268058   -1.642948
     44          1           0        4.061647    3.989730    2.045325
     45          1           0        5.281223    5.358830    0.377899
     46          7           0       -4.591369    0.225236   -0.235572
     47          6           0       -4.996809    1.544618   -0.539366
     48          6           0       -6.345932    1.849462   -0.693639
     49          6           0       -4.053605    2.557013   -0.688173
     50          6           0       -6.738551    3.140118   -0.998819
     51          6           0       -4.455920    3.848924   -0.975713
     52          6           0       -5.798707    4.148587   -1.137139
     53          1           0       -7.085839    1.064984   -0.575406
     54          1           0       -2.999778    2.324624   -0.576668
     55          1           0       -7.794748    3.361033   -1.117399
     56          1           0       -3.707423    4.627077   -1.088273
     57          1           0       -6.110711    5.161215   -1.369943
     58          6           0       -5.228462   -0.872905   -0.859345
     59          6           0       -5.548183   -0.824769   -2.212595
     60          6           0       -5.541916   -2.014931   -0.129127
     61          6           0       -6.178047   -1.897088   -2.818017
     62          6           0       -6.155123   -3.090236   -0.746513
     63          6           0       -6.481192   -3.037227   -2.091754
     64          1           0       -5.300925    0.061617   -2.787177
     65          1           0       -5.299559   -2.056134    0.927579
     66          1           0       -6.421719   -1.844307   -3.874525
     67          1           0       -6.390696   -3.975287   -0.163884
     68          1           0       -6.967632   -3.879890   -2.571608
 ---------------------------------------------------------------------

 SCF Done:  E(RLC-wHPBE) =  -2293.39324479     A.U. after   16 cycles

 The electronic state is 1-A.
 Alpha  occ. eigenvalues --  -88.21598 -88.21253 -14.14355 -14.13787 -10.05566
 Alpha  occ. eigenvalues --  -10.05484 -10.05287 -10.05158 -10.04925 -10.04803
 Alpha  occ. eigenvalues --  -10.04786 -10.04742 -10.03869 -10.02252 -10.01807
 Alpha  occ. eigenvalues --  -10.01806 -10.01209 -10.01184 -10.01084 -10.01046
 Alpha  occ. eigenvalues --  -10.01037 -10.01032 -10.00962 -10.00898 -10.00812
 Alpha  occ. eigenvalues --  -10.00794 -10.00770 -10.00758 -10.00754 -10.00750
 Alpha  occ. eigenvalues --  -10.00738 -10.00728 -10.00700 -10.00563 -10.00441
 Alpha  occ. eigenvalues --  -10.00433 -10.00427 -10.00421 -10.00263 -10.00243
 Alpha  occ. eigenvalues --   -7.80884  -7.80459  -5.83068  -5.82664  -5.82577
 Alpha  occ. eigenvalues --   -5.82166  -5.81816  -5.81372  -1.02316  -1.01734
 Alpha  occ. eigenvalues --   -0.93873  -0.91970  -0.91717  -0.91299  -0.90343
 Alpha  occ. eigenvalues --   -0.89662  -0.86001  -0.85043  -0.82301  -0.81786
 Alpha  occ. eigenvalues --   -0.81613  -0.81024  -0.80509  -0.80477  -0.80272
 Alpha  occ. eigenvalues --   -0.80095  -0.79386  -0.78070  -0.75857  -0.74430
 Alpha  occ. eigenvalues --   -0.69810  -0.69264  -0.69062  -0.68533  -0.67523
 Alpha  occ. eigenvalues --   -0.67126  -0.66795  -0.66391  -0.66247  -0.65546
 Alpha  occ. eigenvalues --   -0.63725  -0.63067  -0.60974  -0.60737  -0.60483
 Alpha  occ. eigenvalues --   -0.59995  -0.57133  -0.56466  -0.56116  -0.54788
 Alpha  occ. eigenvalues --   -0.54632  -0.54130  -0.53837  -0.53478  -0.52673
 Alpha  occ. eigenvalues --   -0.52053  -0.51802  -0.51609  -0.50834  -0.50642
 Alpha  occ. eigenvalues --   -0.50405  -0.50051  -0.49825  -0.49740  -0.49246
 Alpha  occ. eigenvalues --   -0.49035  -0.48909  -0.48751  -0.48518  -0.47809
 Alpha  occ. eigenvalues --   -0.47116  -0.46044  -0.45928  -0.45487  -0.45316
 Alpha  occ. eigenvalues --   -0.45088  -0.44990  -0.43371  -0.43121  -0.42662
 Alpha  occ. eigenvalues --   -0.42343  -0.42189  -0.41875  -0.41364  -0.41311
 Alpha  occ. eigenvalues --   -0.40847  -0.40722  -0.40468  -0.40223  -0.39597
 Alpha  occ. eigenvalues --   -0.38332  -0.36849  -0.35532  -0.34314  -0.34099
 Alpha  occ. eigenvalues --   -0.33802  -0.33680  -0.33182  -0.32976  -0.32570
 Alpha  occ. eigenvalues --   -0.32564  -0.30548  -0.29626  -0.25350  -0.24859
 Alpha virt. eigenvalues --    0.01755   0.02502   0.03062   0.03234   0.03341
 Alpha virt. eigenvalues --    0.03630   0.04503   0.05350   0.05554   0.05747
 Alpha virt. eigenvalues --    0.06945   0.07503   0.08319   0.10194   0.10339

 Mulliken charges:
               1
     1  C   -0.057875
     2  C   -0.264130
     3  S    0.068763
     4  C   -0.017317
     5  C    0.016080
     6  C   -0.203492
     7  C   -0.032372
     8  C   -0.033042
     9  H    0.088878
    10  C   -0.119796
    11  C   -0.108594
    12  C   -0.096871
    13  C   -0.071151
    14  H    0.145412
    15  H    0.123379
    16  H    0.146981
    17  C   -0.145363
    18  H    0.154327
    19  H    0.147354
    20  H    0.111975
    21  H    0.153987
    22  S   -0.026748
    23  N   -0.015299
    24  C   -0.052618
    25  C   -0.118636
    26  C   -0.113700
    27  C   -0.112654
    28  C   -0.112720
    29  C   -0.106547
    30  H    0.153824
    31  H    0.152198
    32  H    0.106796
    33  H    0.107358
    34  H    0.105748
    35  C   -0.051847
    36  C   -0.123023
    37  C   -0.109096
    38  C   -0.112495
    39  C   -0.114657
    40  C   -0.106985
    41  H    0.154082
    42  H    0.156832
    43  H    0.106612
    44  H    0.105826
    45  H    0.105057
    46  N   -0.014837
    47  C   -0.082543
    48  C   -0.105430
    49  C   -0.101138
    50  C   -0.116871
    51  C   -0.120570
    52  C   -0.099679
    53  H    0.154131
    54  H    0.160821
    55  H    0.108468
    56  H    0.107507
    57  H    0.107369
    58  C   -0.060947
    59  C   -0.113515
    60  C   -0.107626
    61  C   -0.110686
    62  C   -0.111254
    63  C   -0.105252
    64  H    0.152062
    65  H    0.150749
    66  H    0.108360
    67  H    0.108948
    68  H    0.107492
 Sum of Mulliken charges =  -0.00000

 Dipole moment (field-independent basis, Debye):
    X=             -0.9732    Y=              2.0598    Z=             -0.1086  Tot=              2.2808
 Quadrupole moment (field-independent basis, Debye-Ang):
   XX=           -228.3524   YY=           -235.5402   ZZ=           -238.4480
   XY=             -1.8312   XZ=             -0.3197   YZ=              7.1024

 Normal termination of Gaussian 16 at Thu Jan 28 07:44:52 2021.
