 Gaussian 16, Revision A.03,
 Gaussian 16:  EM64L-G16RevA.03 25-Dec-2016

 ----------------------------------------------------------------------
 #P LC-wHPBE/TZVP iop(3/107=0224100000, 3/108=0224100000) scf=(conver=6
 ,fermi,ndamp=35,noincfock,novaracc,vshift=500,xqc)
 ----------------------------------------------------------------------

 -------------
 H28 C36 S2 N2
 -------------
 Symbolic Z-matrix:
 Charge =  0 Multiplicity = 1

                         Standard orientation:
 ---------------------------------------------------------------------
 Center     Atomic      Atomic             Coordinates (Angstroms)
 Number     Number       Type             X           Y           Z
 ---------------------------------------------------------------------
      1          6           0       -2.604951   -0.985352    0.477595
      2          6           0       -1.595468   -1.227646    1.396897
      3         16           0       -0.459746   -2.557842    1.073663
      4          6           0       -1.509976   -0.467226    2.564163
      5          6           0        1.043777   -0.455726    0.021717
      6          6           0        1.038330   -1.682104    0.668307
      7          6           0       -3.557585    0.001751    0.697168
      8          6           0       -2.447111    0.539154    2.764444
      9          1           0       -0.596318    0.142670    4.605045
     10          6           0        2.238728    0.147647   -0.319798
     11          6           0        2.246539   -2.297832    0.961919
     12          6           0        3.442101   -1.694718    0.621166
     13          6           0        3.453096   -0.462920   -0.023837
     14          1           0        2.234263    1.106243   -0.827797
     15          1           0        2.253931   -3.248348    1.486346
     16          1           0        4.381679   -2.178238    0.866461
     17          6           0       -3.461673    0.764082    1.856276
     18          1           0       -2.646669   -1.585519   -0.424718
     19          1           0        0.106936    0.032641   -0.224382
     20          1           0       -2.404245    1.146243    3.663282
     21          1           0       -4.192893    1.542008    2.047877
     22         16           0       -0.233558   -0.817463    3.737465
     23          7           0        4.673686    0.159547   -0.368747
     24          6           0        5.732508   -0.612661   -0.896564
     25          6           0        7.045695   -0.377960   -0.499452
     26          6           0        5.475865   -1.622329   -1.819567
     27          6           0        8.078745   -1.133154   -1.024558
     28          6           0        6.512871   -2.384632   -2.326214
     29          6           0        7.820306   -2.143178   -1.936900
     30          1           0        7.251646    0.403669    0.224060
     31          1           0        4.454830   -1.807304   -2.136118
     32          1           0        9.097402   -0.936530   -0.704866
     33          1           0        6.295127   -3.169013   -3.044416
     34          1           0        8.632202   -2.738403   -2.341339
     35          6           0        4.837054    1.548147   -0.168533
     36          6           0        5.516065    2.321618   -1.105787
     37          6           0        4.319017    2.163542    0.967486
     38          6           0        5.679987    3.679833   -0.902534
     39          6           0        4.472338    3.525567    1.154010
     40          6           0        5.156657    4.292005    0.224805
     41          1           0        5.917204    1.848815   -1.995947
     42          1           0        3.791670    1.566068    1.703651
     43          1           0        6.213214    4.268058   -1.642948
     44          1           0        4.061647    3.989730    2.045325
     45          1           0        5.281223    5.358830    0.377899
     46          7           0       -4.591369    0.225236   -0.235572
     47          6           0       -4.996809    1.544618   -0.539366
     48          6           0       -6.345932    1.849462   -0.693639
     49          6           0       -4.053605    2.557013   -0.688173
     50          6           0       -6.738551    3.140118   -0.998819
     51          6           0       -4.455920    3.848924   -0.975713
     52          6           0       -5.798707    4.148587   -1.137139
     53          1           0       -7.085839    1.064984   -0.575406
     54          1           0       -2.999778    2.324624   -0.576668
     55          1           0       -7.794748    3.361033   -1.117399
     56          1           0       -3.707423    4.627077   -1.088273
     57          1           0       -6.110711    5.161215   -1.369943
     58          6           0       -5.228462   -0.872905   -0.859345
     59          6           0       -5.548183   -0.824769   -2.212595
     60          6           0       -5.541916   -2.014931   -0.129127
     61          6           0       -6.178047   -1.897088   -2.818017
     62          6           0       -6.155123   -3.090236   -0.746513
     63          6           0       -6.481192   -3.037227   -2.091754
     64          1           0       -5.300925    0.061617   -2.787177
     65          1           0       -5.299559   -2.056134    0.927579
     66          1           0       -6.421719   -1.844307   -3.874525
     67          1           0       -6.390696   -3.975287   -0.163884
     68          1           0       -6.967632   -3.879890   -2.571608
 ---------------------------------------------------------------------

 SCF Done:  E(RLC-wHPBE) =  -2293.41232850     A.U. after   16 cycles

 The electronic state is 1-A.
 Alpha  occ. eigenvalues --  -88.22093 -88.21752 -14.14836 -14.14267 -10.06097
 Alpha  occ. eigenvalues --  -10.06013 -10.05814 -10.05684 -10.05453 -10.05329
 Alpha  occ. eigenvalues --  -10.05312 -10.05269 -10.04394 -10.02775 -10.02330
 Alpha  occ. eigenvalues --  -10.02328 -10.01730 -10.01704 -10.01605 -10.01566
 Alpha  occ. eigenvalues --  -10.01556 -10.01554 -10.01479 -10.01414 -10.01328
 Alpha  occ. eigenvalues --  -10.01310 -10.01286 -10.01278 -10.01274 -10.01266
 Alpha  occ. eigenvalues --  -10.01257 -10.01248 -10.01219 -10.01080 -10.00956
 Alpha  occ. eigenvalues --  -10.00948 -10.00942 -10.00937 -10.00781 -10.00760
 Alpha  occ. eigenvalues --   -7.81390  -7.80969  -5.83562  -5.83162  -5.83069
 Alpha  occ. eigenvalues --   -5.82662  -5.82305  -5.81865  -1.02854  -1.02270
 Alpha  occ. eigenvalues --   -0.94429  -0.92519  -0.92265  -0.91847  -0.90886
 Alpha  occ. eigenvalues --   -0.90203  -0.86532  -0.85569  -0.82819  -0.82304
 Alpha  occ. eigenvalues --   -0.82128  -0.81541  -0.81024  -0.80992  -0.80788
 Alpha  occ. eigenvalues --   -0.80610  -0.79890  -0.78571  -0.76345  -0.74914
 Alpha  occ. eigenvalues --   -0.70274  -0.69727  -0.69521  -0.68992  -0.67984
 Alpha  occ. eigenvalues --   -0.67587  -0.67253  -0.66847  -0.66702  -0.65995
 Alpha  occ. eigenvalues --   -0.64167  -0.63507  -0.61403  -0.61163  -0.60911
 Alpha  occ. eigenvalues --   -0.60414  -0.57544  -0.56878  -0.56524  -0.55188
 Alpha  occ. eigenvalues --   -0.55029  -0.54524  -0.54239  -0.53865  -0.53067
 Alpha  occ. eigenvalues --   -0.52445  -0.52191  -0.52000  -0.51220  -0.51030
 Alpha  occ. eigenvalues --   -0.50786  -0.50429  -0.50202  -0.50118  -0.49628
 Alpha  occ. eigenvalues --   -0.49415  -0.49287  -0.49131  -0.48894  -0.48176
 Alpha  occ. eigenvalues --   -0.47497  -0.46414  -0.46322  -0.45881  -0.45709
 Alpha  occ. eigenvalues --   -0.45479  -0.45351  -0.43711  -0.43463  -0.43003
 Alpha  occ. eigenvalues --   -0.42685  -0.42529  -0.42218  -0.41696  -0.41638
 Alpha  occ. eigenvalues --   -0.41177  -0.41051  -0.40798  -0.40548  -0.39923
 Alpha  occ. eigenvalues --   -0.38654  -0.37153  -0.35823  -0.34575  -0.34358
 Alpha  occ. eigenvalues --   -0.34062  -0.33939  -0.33437  -0.33232  -0.32824
 Alpha  occ. eigenvalues --   -0.32819  -0.30802  -0.29884  -0.25560  -0.25068
 Alpha virt. eigenvalues --    0.01931   0.02677   0.03244   0.03417   0.03523
 Alpha virt. eigenvalues --    0.03813   0.04700   0.05553   0.05758   0.05951
 Alpha virt. eigenvalues --    0.07169   0.07708   0.08527   0.10380   0.10556

 Mulliken charges:
               1
     1  C   -0.058421
     2  C   -0.265893
     3  S    0.070394
     4  C   -0.018784
     5  C    0.014775
     6  C   -0.204547
     7  C   -0.032915
     8  C   -0.033703
     9  H    0.088743
    10  C   -0.120195
    11  C   -0.109506
    12  C   -0.097653
    13  C   -0.071786
    14  H    0.146975
    15  H    0.124704
    16  H    0.148498
    17  C   -0.146190
    18  H    0.156226
    19  H    0.148341
    20  H    0.113329
    21  H    0.155531
    22  S   -0.025596
    23  N   -0.018472
    24  C   -0.052397
    25  C   -0.119695
    26  C   -0.114782
    27  C   -0.113553
    28  C   -0.113622
    29  C   -0.108111
    30  H    0.155264
    31  H    0.153652
    32  H    0.107954
    33  H    0.108519
    34  H    0.106933
    35  C   -0.051611
    36  C   -0.124070
    37  C   -0.110226
    38  C   -0.113395
    39  C   -0.115545
    40  C   -0.108563
    41  H    0.155525
    42  H    0.158300
    43  H    0.107772
    44  H    0.106991
    45  H    0.106244
    46  N   -0.018006
    47  C   -0.082196
    48  C   -0.106508
    49  C   -0.102273
    50  C   -0.117773
    51  C   -0.121412
    52  C   -0.101278
    53  H    0.155581
    54  H    0.162149
    55  H    0.109628
    56  H    0.108677
    57  H    0.108553
    58  C   -0.060699
    59  C   -0.114570
    60  C   -0.108732
    61  C   -0.111606
    62  C   -0.112147
    63  C   -0.106802
    64  H    0.153495
    65  H    0.152186
    66  H    0.109515
    67  H    0.110107
    68  H    0.108671
 Sum of Mulliken charges =  -0.00000

 Dipole moment (field-independent basis, Debye):
    X=             -0.9751    Y=              2.0695    Z=             -0.1143  Tot=              2.2905
 Quadrupole moment (field-independent basis, Debye-Ang):
   XX=           -228.1917   YY=           -235.4311   ZZ=           -238.3779
   XY=             -1.8396   XZ=             -0.3249   YZ=              7.1310

 Normal termination of Gaussian 16 at Thu Jan 28 22:34:04 2021.
