 Gaussian 16, Revision A.03,
 Gaussian 16:  EM64L-G16RevA.03 25-Dec-2016

 ----------------------------------------------------------------------
 #P LC-wHPBE/TZVP iop(3/107=0262500000, 3/108=0262500000) scf=(conver=6
 ,fermi,ndamp=35,noincfock,novaracc,vshift=500,xqc)
 ----------------------------------------------------------------------

 -------------
 H28 C36 S2 N2
 -------------
 Symbolic Z-matrix:
 Charge =  1 Multiplicity = 2

                         Standard orientation:
 ---------------------------------------------------------------------
 Center     Atomic      Atomic             Coordinates (Angstroms)
 Number     Number       Type             X           Y           Z
 ---------------------------------------------------------------------
      1          6           0       -2.604951   -0.985352    0.477595
      2          6           0       -1.595468   -1.227646    1.396897
      3         16           0       -0.459746   -2.557842    1.073663
      4          6           0       -1.509976   -0.467226    2.564163
      5          6           0        1.043777   -0.455726    0.021717
      6          6           0        1.038330   -1.682104    0.668307
      7          6           0       -3.557585    0.001751    0.697168
      8          6           0       -2.447111    0.539154    2.764444
      9          1           0       -0.596318    0.142670    4.605045
     10          6           0        2.238728    0.147647   -0.319798
     11          6           0        2.246539   -2.297832    0.961919
     12          6           0        3.442101   -1.694718    0.621166
     13          6           0        3.453096   -0.462920   -0.023837
     14          1           0        2.234263    1.106243   -0.827797
     15          1           0        2.253931   -3.248348    1.486346
     16          1           0        4.381679   -2.178238    0.866461
     17          6           0       -3.461673    0.764082    1.856276
     18          1           0       -2.646669   -1.585519   -0.424718
     19          1           0        0.106936    0.032641   -0.224382
     20          1           0       -2.404245    1.146243    3.663282
     21          1           0       -4.192893    1.542008    2.047877
     22         16           0       -0.233558   -0.817463    3.737465
     23          7           0        4.673686    0.159547   -0.368747
     24          6           0        5.732508   -0.612661   -0.896564
     25          6           0        7.045695   -0.377960   -0.499452
     26          6           0        5.475865   -1.622329   -1.819567
     27          6           0        8.078745   -1.133154   -1.024558
     28          6           0        6.512871   -2.384632   -2.326214
     29          6           0        7.820306   -2.143178   -1.936900
     30          1           0        7.251646    0.403669    0.224060
     31          1           0        4.454830   -1.807304   -2.136118
     32          1           0        9.097402   -0.936530   -0.704866
     33          1           0        6.295127   -3.169013   -3.044416
     34          1           0        8.632202   -2.738403   -2.341339
     35          6           0        4.837054    1.548147   -0.168533
     36          6           0        5.516065    2.321618   -1.105787
     37          6           0        4.319017    2.163542    0.967486
     38          6           0        5.679987    3.679833   -0.902534
     39          6           0        4.472338    3.525567    1.154010
     40          6           0        5.156657    4.292005    0.224805
     41          1           0        5.917204    1.848815   -1.995947
     42          1           0        3.791670    1.566068    1.703651
     43          1           0        6.213214    4.268058   -1.642948
     44          1           0        4.061647    3.989730    2.045325
     45          1           0        5.281223    5.358830    0.377899
     46          7           0       -4.591369    0.225236   -0.235572
     47          6           0       -4.996809    1.544618   -0.539366
     48          6           0       -6.345932    1.849462   -0.693639
     49          6           0       -4.053605    2.557013   -0.688173
     50          6           0       -6.738551    3.140118   -0.998819
     51          6           0       -4.455920    3.848924   -0.975713
     52          6           0       -5.798707    4.148587   -1.137139
     53          1           0       -7.085839    1.064984   -0.575406
     54          1           0       -2.999778    2.324624   -0.576668
     55          1           0       -7.794748    3.361033   -1.117399
     56          1           0       -3.707423    4.627077   -1.088273
     57          1           0       -6.110711    5.161215   -1.369943
     58          6           0       -5.228462   -0.872905   -0.859345
     59          6           0       -5.548183   -0.824769   -2.212595
     60          6           0       -5.541916   -2.014931   -0.129127
     61          6           0       -6.178047   -1.897088   -2.818017
     62          6           0       -6.155123   -3.090236   -0.746513
     63          6           0       -6.481192   -3.037227   -2.091754
     64          1           0       -5.300925    0.061617   -2.787177
     65          1           0       -5.299559   -2.056134    0.927579
     66          1           0       -6.421719   -1.844307   -3.874525
     67          1           0       -6.390696   -3.975287   -0.163884
     68          1           0       -6.967632   -3.879890   -2.571608
 ---------------------------------------------------------------------

 SCF Done:  E(ULC-wHPBE) =  -2293.23365561     A.U. after   33 cycles
 SCF Done:  E(ULC-wHPBE) =  -2293.23678600     a.u. after    5 cycles

 The electronic state is 2-A.
 Alpha  occ. eigenvalues --  -88.36412 -88.34002 -14.37195 -14.22785 -10.22791
 Alpha  occ. eigenvalues --  -10.22093 -10.21985 -10.21874 -10.20035 -10.18603
 Alpha  occ. eigenvalues --  -10.18404 -10.17698 -10.17586 -10.17470 -10.17432
 Alpha  occ. eigenvalues --  -10.17363 -10.16602 -10.16463 -10.16360 -10.16325
 Alpha  occ. eigenvalues --  -10.16191 -10.16182 -10.15142 -10.15140 -10.13566
 Alpha  occ. eigenvalues --  -10.13239 -10.12239 -10.11873 -10.11246 -10.11005
 Alpha  occ. eigenvalues --  -10.09353 -10.09209 -10.09165 -10.08974 -10.08865
 Alpha  occ. eigenvalues --  -10.08812 -10.08762 -10.08723 -10.08659 -10.08284
 Alpha  occ. eigenvalues --   -7.95665  -7.93253  -5.97746  -5.97226  -5.96619
 Alpha  occ. eigenvalues --   -5.95408  -5.94866  -5.94054  -1.22161  -1.11001
 Alpha  occ. eigenvalues --   -1.09939  -1.08119  -1.06624  -1.03222  -1.01520
 Alpha  occ. eigenvalues --   -0.99907  -0.99698  -0.98464  -0.97991  -0.96815
 Alpha  occ. eigenvalues --   -0.96238  -0.95282  -0.94282  -0.91648  -0.91512
 Alpha  occ. eigenvalues --   -0.89708  -0.89520  -0.88481  -0.88203  -0.85877
 Alpha  occ. eigenvalues --   -0.85046  -0.84769  -0.83063  -0.82318  -0.81538
 Alpha  occ. eigenvalues --   -0.79251  -0.78548  -0.77531  -0.76588  -0.76129
 Alpha  occ. eigenvalues --   -0.75476  -0.74471  -0.74249  -0.72211  -0.72146
 Alpha  occ. eigenvalues --   -0.71686  -0.70234  -0.69455  -0.69301  -0.68534
 Alpha  occ. eigenvalues --   -0.68062  -0.66964  -0.65780  -0.65397  -0.65146
 Alpha  occ. eigenvalues --   -0.64908  -0.64367  -0.63896  -0.63561  -0.63471
 Alpha  occ. eigenvalues --   -0.62479  -0.61886  -0.61826  -0.61370  -0.60774
 Alpha  occ. eigenvalues --   -0.60635  -0.60033  -0.59326  -0.58796  -0.58618
 Alpha  occ. eigenvalues --   -0.57951  -0.57592  -0.57494  -0.57169  -0.56699
 Alpha  occ. eigenvalues --   -0.56626  -0.56128  -0.55806  -0.55403  -0.55270
 Alpha  occ. eigenvalues --   -0.54983  -0.53403  -0.53170  -0.52713  -0.52352
 Alpha  occ. eigenvalues --   -0.51692  -0.51208  -0.50031  -0.49295  -0.48753
 Alpha  occ. eigenvalues --   -0.48518  -0.48318  -0.47813  -0.47538  -0.47152
 Alpha  occ. eigenvalues --   -0.46851  -0.44976  -0.44301  -0.42561  -0.41350
 Alpha  occ. eigenvalues --   -0.40615  -0.40067  -0.39771  -0.39159  -0.32564
 Alpha virt. eigenvalues --   -0.10134  -0.09728  -0.09132  -0.07437  -0.06523
 Alpha virt. eigenvalues --   -0.05006  -0.04223  -0.03015  -0.02428  -0.01260
 Alpha virt. eigenvalues --   -0.00179  -0.00081   0.00734   0.01030   0.01672

  Beta  occ. eigenvalues --  -88.36370 -88.34000 -14.36319 -14.22784 -10.22825
  Beta  occ. eigenvalues --  -10.22176 -10.22064 -10.21667 -10.20101 -10.18449
  Beta  occ. eigenvalues --  -10.18261 -10.17765 -10.17434 -10.17322 -10.17280
  Beta  occ. eigenvalues --  -10.17215 -10.16460 -10.16425 -10.16390 -10.16312
  Beta  occ. eigenvalues --  -10.16265 -10.16246 -10.15147 -10.15141 -10.13566
  Beta  occ. eigenvalues --  -10.13239 -10.12239 -10.11873 -10.11246 -10.11004
  Beta  occ. eigenvalues --  -10.09353 -10.09209 -10.09165 -10.08974 -10.08865
  Beta  occ. eigenvalues --  -10.08812 -10.08762 -10.08723 -10.08659 -10.08284
  Beta  occ. eigenvalues --   -7.95623  -7.93251  -5.97722  -5.97203  -5.96501
  Beta  occ. eigenvalues --   -5.95405  -5.94864  -5.94051  -1.21055  -1.11000
  Beta  occ. eigenvalues --   -1.09693  -1.07929  -1.06349  -1.03184  -1.01222
  Beta  occ. eigenvalues --   -0.99902  -0.99630  -0.98384  -0.97885  -0.96645
  Beta  occ. eigenvalues --   -0.96095  -0.95036  -0.94164  -0.91578  -0.91146
  Beta  occ. eigenvalues --   -0.89707  -0.89444  -0.88464  -0.88177  -0.85694
  Beta  occ. eigenvalues --   -0.84752  -0.84644  -0.82853  -0.82147  -0.81393
  Beta  occ. eigenvalues --   -0.79154  -0.78521  -0.77448  -0.76435  -0.76119
  Beta  occ. eigenvalues --   -0.75389  -0.74460  -0.74218  -0.72211  -0.71899
  Beta  occ. eigenvalues --   -0.71277  -0.69812  -0.69330  -0.69122  -0.68533
  Beta  occ. eigenvalues --   -0.67793  -0.66884  -0.65684  -0.65233  -0.65055
  Beta  occ. eigenvalues --   -0.64792  -0.64242  -0.63810  -0.63472  -0.63420
  Beta  occ. eigenvalues --   -0.62175  -0.61847  -0.61453  -0.61012  -0.60527
  Beta  occ. eigenvalues --   -0.60214  -0.60006  -0.59199  -0.58713  -0.58498
  Beta  occ. eigenvalues --   -0.57787  -0.57520  -0.57381  -0.56768  -0.56620
  Beta  occ. eigenvalues --   -0.56118  -0.56049  -0.55782  -0.55287  -0.55155
  Beta  occ. eigenvalues --   -0.54355  -0.53260  -0.53166  -0.52711  -0.51924
  Beta  occ. eigenvalues --   -0.51216  -0.50140  -0.50021  -0.49289  -0.48503
  Beta  occ. eigenvalues --   -0.48164  -0.47776  -0.47690  -0.47099  -0.46780
  Beta  occ. eigenvalues --   -0.46510  -0.44314  -0.42559  -0.42149  -0.40614
  Beta  occ. eigenvalues --   -0.40060  -0.39750  -0.39144  -0.32549
  Beta virt. eigenvalues --   -0.23533  -0.09495  -0.09060  -0.08472  -0.06872
  Beta virt. eigenvalues --   -0.06011  -0.04206  -0.03587  -0.02986  -0.02360
  Beta virt. eigenvalues --   -0.01258  -0.00171  -0.00007   0.00823   0.01039

 Mulliken charges and spin densities:
               1          2
     1  C   -0.018574   0.100198
     2  C   -0.312921  -0.068784
     3  S    0.123855   0.005376
     4  C   -0.008467   0.146895
     5  C    0.016410  -0.000494
     6  C   -0.224979  -0.000872
     7  C   -0.051557  -0.003038
     8  C   -0.025818  -0.072475
     9  H    0.111809  -0.002115
    10  C   -0.120431   0.000263
    11  C   -0.101653  -0.001881
    12  C   -0.100093   0.001135
    13  C   -0.081159  -0.000299
    14  H    0.162079  -0.000032
    15  H    0.145981  -0.000078
    16  H    0.172068  -0.000048
    17  C   -0.130641   0.107820
    18  H    0.192256  -0.004769
    19  H    0.127605  -0.000201
    20  H    0.156604   0.002503
    21  H    0.193015  -0.004908
    22  S    0.092196   0.086585
    23  N   -0.030657   0.000298
    24  C   -0.051201  -0.000033
    25  C   -0.123186   0.000079
    26  C   -0.121733   0.000085
    27  C   -0.117487  -0.000043
    28  C   -0.117276  -0.000051
    29  C   -0.111835   0.000108
    30  H    0.167222  -0.000003
    31  H    0.152735  -0.000006
    32  H    0.125023   0.000002
    33  H    0.120845   0.000003
    34  H    0.124858  -0.000005
    35  C   -0.050721  -0.000015
    36  C   -0.127331   0.000062
    37  C   -0.117949   0.000062
    38  C   -0.118023  -0.000042
    39  C   -0.119136  -0.000028
    40  C   -0.115056   0.000082
    41  H    0.170145  -0.000002
    42  H    0.151688  -0.000012
    43  H    0.124897   0.000001
    44  H    0.115040   0.000005
    45  H    0.122567  -0.000004
    46  N    0.080182   0.391705
    47  C   -0.108024  -0.045640
    48  C   -0.087297   0.110669
    49  C   -0.083867   0.111003
    50  C   -0.118834  -0.074601
    51  C   -0.122528  -0.076622
    52  C   -0.070262   0.140444
    53  H    0.192777  -0.004506
    54  H    0.198996  -0.004015
    55  H    0.156264   0.003441
    56  H    0.154257   0.003613
    57  H    0.159009  -0.006778
    58  C   -0.084071  -0.041755
    59  C   -0.095707   0.109366
    60  C   -0.090367   0.110556
    61  C   -0.112715  -0.074096
    62  C   -0.113253  -0.076268
    63  C   -0.075851   0.140964
    64  H    0.190826  -0.004503
    65  H    0.188383  -0.004518
    66  H    0.156010   0.003417
    67  H    0.155935   0.003606
    68  H    0.159125  -0.006808
 Sum of Mulliken charges =   1.00000   1.00000

 Dipole moment (field-independent basis, Debye):
    X=            -17.2200    Y=              2.5778    Z=              0.0232  Tot=             17.4119
 Quadrupole moment (field-independent basis, Debye-Ang):
   XX=            -99.7607   YY=           -198.6148   ZZ=           -211.4315
   XY=             -7.3331   XZ=             14.1080   YZ=              6.1691

 Normal termination of Gaussian 16 at Thu Jan 28 03:11:52 2021.
