 Gaussian 16, Revision A.03,
 Gaussian 16:  EM64L-G16RevA.03 25-Dec-2016

 ----------------------------------------------------------------------
 #P LC-wHPBE/TZVP iop(3/107=0227800000, 3/108=0227800000) scf=(conver=6
 ,fermi,ndamp=35,noincfock,novaracc,vshift=500,xqc)
 ----------------------------------------------------------------------

 -------------
 H28 C36 S2 N2
 -------------
 Symbolic Z-matrix:
 Charge =  1 Multiplicity = 2

                         Standard orientation:
 ---------------------------------------------------------------------
 Center     Atomic      Atomic             Coordinates (Angstroms)
 Number     Number       Type             X           Y           Z
 ---------------------------------------------------------------------
      1          6           0       -2.604951   -0.985352    0.477595
      2          6           0       -1.595468   -1.227646    1.396897
      3         16           0       -0.459746   -2.557842    1.073663
      4          6           0       -1.509976   -0.467226    2.564163
      5          6           0        1.043777   -0.455726    0.021717
      6          6           0        1.038330   -1.682104    0.668307
      7          6           0       -3.557585    0.001751    0.697168
      8          6           0       -2.447111    0.539154    2.764444
      9          1           0       -0.596318    0.142670    4.605045
     10          6           0        2.238728    0.147647   -0.319798
     11          6           0        2.246539   -2.297832    0.961919
     12          6           0        3.442101   -1.694718    0.621166
     13          6           0        3.453096   -0.462920   -0.023837
     14          1           0        2.234263    1.106243   -0.827797
     15          1           0        2.253931   -3.248348    1.486346
     16          1           0        4.381679   -2.178238    0.866461
     17          6           0       -3.461673    0.764082    1.856276
     18          1           0       -2.646669   -1.585519   -0.424718
     19          1           0        0.106936    0.032641   -0.224382
     20          1           0       -2.404245    1.146243    3.663282
     21          1           0       -4.192893    1.542008    2.047877
     22         16           0       -0.233558   -0.817463    3.737465
     23          7           0        4.673686    0.159547   -0.368747
     24          6           0        5.732508   -0.612661   -0.896564
     25          6           0        7.045695   -0.377960   -0.499452
     26          6           0        5.475865   -1.622329   -1.819567
     27          6           0        8.078745   -1.133154   -1.024558
     28          6           0        6.512871   -2.384632   -2.326214
     29          6           0        7.820306   -2.143178   -1.936900
     30          1           0        7.251646    0.403669    0.224060
     31          1           0        4.454830   -1.807304   -2.136118
     32          1           0        9.097402   -0.936530   -0.704866
     33          1           0        6.295127   -3.169013   -3.044416
     34          1           0        8.632202   -2.738403   -2.341339
     35          6           0        4.837054    1.548147   -0.168533
     36          6           0        5.516065    2.321618   -1.105787
     37          6           0        4.319017    2.163542    0.967486
     38          6           0        5.679987    3.679833   -0.902534
     39          6           0        4.472338    3.525567    1.154010
     40          6           0        5.156657    4.292005    0.224805
     41          1           0        5.917204    1.848815   -1.995947
     42          1           0        3.791670    1.566068    1.703651
     43          1           0        6.213214    4.268058   -1.642948
     44          1           0        4.061647    3.989730    2.045325
     45          1           0        5.281223    5.358830    0.377899
     46          7           0       -4.591369    0.225236   -0.235572
     47          6           0       -4.996809    1.544618   -0.539366
     48          6           0       -6.345932    1.849462   -0.693639
     49          6           0       -4.053605    2.557013   -0.688173
     50          6           0       -6.738551    3.140118   -0.998819
     51          6           0       -4.455920    3.848924   -0.975713
     52          6           0       -5.798707    4.148587   -1.137139
     53          1           0       -7.085839    1.064984   -0.575406
     54          1           0       -2.999778    2.324624   -0.576668
     55          1           0       -7.794748    3.361033   -1.117399
     56          1           0       -3.707423    4.627077   -1.088273
     57          1           0       -6.110711    5.161215   -1.369943
     58          6           0       -5.228462   -0.872905   -0.859345
     59          6           0       -5.548183   -0.824769   -2.212595
     60          6           0       -5.541916   -2.014931   -0.129127
     61          6           0       -6.178047   -1.897088   -2.818017
     62          6           0       -6.155123   -3.090236   -0.746513
     63          6           0       -6.481192   -3.037227   -2.091754
     64          1           0       -5.300925    0.061617   -2.787177
     65          1           0       -5.299559   -2.056134    0.927579
     66          1           0       -6.421719   -1.844307   -3.874525
     67          1           0       -6.390696   -3.975287   -0.163884
     68          1           0       -6.967632   -3.879890   -2.571608
 ---------------------------------------------------------------------

 SCF Done:  E(ULC-wHPBE) =  -2293.17073550     A.U. after   33 cycles
 SCF Done:  E(ULC-wHPBE) =  -2293.17246419     a.u. after    6 cycles

 The electronic state is 2-A.
 Alpha  occ. eigenvalues --  -88.34667 -88.32186 -14.34876 -14.21054 -10.20739
 Alpha  occ. eigenvalues --  -10.19980 -10.19874 -10.19871 -10.18081 -10.16557
 Alpha  occ. eigenvalues --  -10.16321 -10.15746 -10.15482 -10.15361 -10.15328
 Alpha  occ. eigenvalues --  -10.15256 -10.14518 -10.14382 -10.14317 -10.14280
 Alpha  occ. eigenvalues --  -10.14149 -10.14143 -10.13225 -10.13215 -10.11642
 Alpha  occ. eigenvalues --  -10.11321 -10.10326 -10.09971 -10.09354 -10.09126
 Alpha  occ. eigenvalues --  -10.07449 -10.07325 -10.07261 -10.07089 -10.06970
 Alpha  occ. eigenvalues --  -10.06927 -10.06865 -10.06832 -10.06779 -10.06399
 Alpha  occ. eigenvalues --   -7.93871  -7.91388  -5.96005  -5.95496  -5.94908
 Alpha  occ. eigenvalues --   -5.93598  -5.93066  -5.92268  -1.19855  -1.09059
 Alpha  occ. eigenvalues --   -1.07829  -1.05934  -1.04477  -1.01219  -0.99534
 Alpha  occ. eigenvalues --   -0.97921  -0.97726  -0.96469  -0.96005  -0.94805
 Alpha  occ. eigenvalues --   -0.94215  -0.93344  -0.92396  -0.89800  -0.89665
 Alpha  occ. eigenvalues --   -0.87877  -0.87699  -0.86653  -0.86377  -0.84088
 Alpha  occ. eigenvalues --   -0.83294  -0.83011  -0.81317  -0.80544  -0.79811
 Alpha  occ. eigenvalues --   -0.77599  -0.76917  -0.75909  -0.74923  -0.74534
 Alpha  occ. eigenvalues --   -0.73889  -0.72883  -0.72671  -0.70677  -0.70590
 Alpha  occ. eigenvalues --   -0.70095  -0.68634  -0.68001  -0.67851  -0.67070
 Alpha  occ. eigenvalues --   -0.66558  -0.65497  -0.64404  -0.63952  -0.63685
 Alpha  occ. eigenvalues --   -0.63466  -0.62932  -0.62471  -0.62107  -0.62099
 Alpha  occ. eigenvalues --   -0.61069  -0.60513  -0.60464  -0.59980  -0.59352
 Alpha  occ. eigenvalues --   -0.59243  -0.58703  -0.58098  -0.57491  -0.57331
 Alpha  occ. eigenvalues --   -0.56636  -0.56278  -0.56170  -0.55845  -0.55403
 Alpha  occ. eigenvalues --   -0.55331  -0.54856  -0.54547  -0.54204  -0.54060
 Alpha  occ. eigenvalues --   -0.53753  -0.52299  -0.51869  -0.51411  -0.51238
 Alpha  occ. eigenvalues --   -0.50629  -0.50081  -0.48893  -0.48160  -0.47754
 Alpha  occ. eigenvalues --   -0.47495  -0.47259  -0.46741  -0.46512  -0.46192
 Alpha  occ. eigenvalues --   -0.45894  -0.44047  -0.43326  -0.41756  -0.40498
 Alpha  occ. eigenvalues --   -0.39819  -0.39275  -0.38984  -0.38387  -0.31930
 Alpha virt. eigenvalues --   -0.10653  -0.10252  -0.09605  -0.07992  -0.07076
 Alpha virt. eigenvalues --   -0.05561  -0.04911  -0.03665  -0.03194  -0.01905
 Alpha virt. eigenvalues --   -0.00859  -0.00609  -0.00040   0.00320   0.01105

  Beta  occ. eigenvalues --  -88.34623 -88.32183 -14.34048 -14.21051 -10.20756
  Beta  occ. eigenvalues --  -10.20047 -10.19936 -10.19677 -10.18131 -10.16413
  Beta  occ. eigenvalues --  -10.16195 -10.15800 -10.15342 -10.15225 -10.15188
  Beta  occ. eigenvalues --  -10.15121 -10.14398 -10.14364 -10.14330 -10.14247
  Beta  occ. eigenvalues --  -10.14212 -10.14189 -10.13229 -10.13214 -10.11642
  Beta  occ. eigenvalues --  -10.11321 -10.10326 -10.09972 -10.09355 -10.09125
  Beta  occ. eigenvalues --  -10.07449 -10.07324 -10.07261 -10.07089 -10.06970
  Beta  occ. eigenvalues --  -10.06927 -10.06866 -10.06831 -10.06778 -10.06398
  Beta  occ. eigenvalues --   -7.93827  -7.91385  -5.95979  -5.95471  -5.94784
  Beta  occ. eigenvalues --   -5.93594  -5.93063  -5.92261  -1.18809  -1.09056
  Beta  occ. eigenvalues --   -1.07588  -1.05751  -1.04221  -1.01180  -0.99247
  Beta  occ. eigenvalues --   -0.97915  -0.97658  -0.96401  -0.95888  -0.94642
  Beta  occ. eigenvalues --   -0.94077  -0.93119  -0.92285  -0.89721  -0.89331
  Beta  occ. eigenvalues --   -0.87875  -0.87625  -0.86636  -0.86356  -0.83919
  Beta  occ. eigenvalues --   -0.83017  -0.82891  -0.81120  -0.80377  -0.79671
  Beta  occ. eigenvalues --   -0.77506  -0.76891  -0.75825  -0.74775  -0.74523
  Beta  occ. eigenvalues --   -0.73802  -0.72870  -0.72643  -0.70677  -0.70360
  Beta  occ. eigenvalues --   -0.69749  -0.68265  -0.67874  -0.67690  -0.67068
  Beta  occ. eigenvalues --   -0.66298  -0.65420  -0.64313  -0.63814  -0.63596
  Beta  occ. eigenvalues --   -0.63353  -0.62831  -0.62375  -0.62062  -0.62022
  Beta  occ. eigenvalues --   -0.60798  -0.60478  -0.60194  -0.59605  -0.59184
  Beta  occ. eigenvalues --   -0.58802  -0.58676  -0.57974  -0.57426  -0.57225
  Beta  occ. eigenvalues --   -0.56504  -0.56225  -0.56063  -0.55467  -0.55324
  Beta  occ. eigenvalues --   -0.54845  -0.54833  -0.54519  -0.54080  -0.53953
  Beta  occ. eigenvalues --   -0.53223  -0.52159  -0.51865  -0.51406  -0.50865
  Beta  occ. eigenvalues --   -0.50082  -0.49241  -0.48887  -0.48151  -0.47432
  Beta  occ. eigenvalues --   -0.47145  -0.46813  -0.46635  -0.46129  -0.45851
  Beta  occ. eigenvalues --   -0.45623  -0.43332  -0.41755  -0.41415  -0.39816
  Beta  occ. eigenvalues --   -0.39261  -0.38950  -0.38361  -0.31883
  Beta virt. eigenvalues --   -0.23787  -0.10052  -0.09596  -0.08980  -0.07498
  Beta virt. eigenvalues --   -0.06620  -0.04883  -0.04311  -0.03638  -0.03125
  Beta virt. eigenvalues --   -0.01902  -0.00854  -0.00532   0.00054   0.00327

 Mulliken charges and spin densities:
               1          2
     1  C   -0.018035   0.084804
     2  C   -0.306053  -0.055402
     3  S    0.120806   0.008084
     4  C   -0.005463   0.136998
     5  C    0.020544  -0.000396
     6  C   -0.220858  -0.000097
     7  C   -0.045923   0.010103
     8  C   -0.021871  -0.059365
     9  H    0.112677  -0.002247
    10  C   -0.118227  -0.000031
    11  C   -0.098966  -0.001900
    12  C   -0.096544   0.001593
    13  C   -0.077725   0.000222
    14  H    0.155820  -0.000007
    15  H    0.140865  -0.000027
    16  H    0.166060  -0.000074
    17  C   -0.128211   0.098338
    18  H    0.184815  -0.004068
    19  H    0.124254  -0.000189
    20  H    0.151344   0.001941
    21  H    0.186948  -0.004579
    22  S    0.092018   0.093201
    23  N   -0.018285   0.001412
    24  C   -0.051322  -0.000165
    25  C   -0.118458   0.000374
    26  C   -0.116650   0.000376
    27  C   -0.114054  -0.000223
    28  C   -0.113790  -0.000253
    29  C   -0.105132   0.000489
    30  H    0.161453  -0.000015
    31  H    0.146858  -0.000021
    32  H    0.120383   0.000010
    33  H    0.116185   0.000014
    34  H    0.120188  -0.000025
    35  C   -0.050734  -0.000171
    36  C   -0.122688   0.000387
    37  C   -0.112495   0.000387
    38  C   -0.114592  -0.000246
    39  C   -0.115625  -0.000225
    40  C   -0.108261   0.000484
    41  H    0.164359  -0.000015
    42  H    0.145351  -0.000053
    43  H    0.120258   0.000009
    44  H    0.110229   0.000018
    45  H    0.117859  -0.000025
    46  N    0.082534   0.370042
    47  C   -0.105200  -0.033714
    48  C   -0.084174   0.099574
    49  C   -0.080712   0.100012
    50  C   -0.114339  -0.062676
    51  C   -0.118227  -0.064779
    52  C   -0.066075   0.128338
    53  H    0.186564  -0.004115
    54  H    0.192754  -0.003659
    55  H    0.151368   0.002973
    56  H    0.149173   0.003149
    57  H    0.154023  -0.006300
    58  C   -0.080928  -0.030297
    59  C   -0.092672   0.098591
    60  C   -0.087127   0.099714
    61  C   -0.108208  -0.062359
    62  C   -0.108821  -0.064367
    63  C   -0.071845   0.128939
    64  H    0.184620  -0.004120
    65  H    0.181786  -0.004138
    66  H    0.151102   0.002955
    67  H    0.150944   0.003143
    68  H    0.154148  -0.006334
 Sum of Mulliken charges =   1.00000   1.00000

 Dipole moment (field-independent basis, Debye):
    X=            -16.8444    Y=              2.5067    Z=              0.1437  Tot=             17.0305
 Quadrupole moment (field-independent basis, Debye-Ang):
   XX=           -100.8700   YY=           -199.0070   ZZ=           -211.3919
   XY=             -7.2201   XZ=             13.7526   YZ=              6.0156

 Normal termination of Gaussian 16 at Thu Jan 28 16:53:45 2021.
