 Gaussian 16, Revision A.03,
 Gaussian 16:  EM64L-G16RevA.03 25-Dec-2016

 ----------------------------------------------------------------------
 #P LC-wHPBE/TZVP iop(3/107=0237400000, 3/108=0237400000) scf=(conver=6
 ,fermi,ndamp=35,noincfock,novaracc,vshift=500,xqc)
 ----------------------------------------------------------------------

 -------------
 H28 C36 S2 N2
 -------------
 Symbolic Z-matrix:
 Charge =  0 Multiplicity = 1

                         Standard orientation:
 ---------------------------------------------------------------------
 Center     Atomic      Atomic             Coordinates (Angstroms)
 Number     Number       Type             X           Y           Z
 ---------------------------------------------------------------------
      1          6           0       -2.604951   -0.985352    0.477595
      2          6           0       -1.595468   -1.227646    1.396897
      3         16           0       -0.459746   -2.557842    1.073663
      4          6           0       -1.509976   -0.467226    2.564163
      5          6           0        1.043777   -0.455726    0.021717
      6          6           0        1.038330   -1.682104    0.668307
      7          6           0       -3.557585    0.001751    0.697168
      8          6           0       -2.447111    0.539154    2.764444
      9          1           0       -0.596318    0.142670    4.605045
     10          6           0        2.238728    0.147647   -0.319798
     11          6           0        2.246539   -2.297832    0.961919
     12          6           0        3.442101   -1.694718    0.621166
     13          6           0        3.453096   -0.462920   -0.023837
     14          1           0        2.234263    1.106243   -0.827797
     15          1           0        2.253931   -3.248348    1.486346
     16          1           0        4.381679   -2.178238    0.866461
     17          6           0       -3.461673    0.764082    1.856276
     18          1           0       -2.646669   -1.585519   -0.424718
     19          1           0        0.106936    0.032641   -0.224382
     20          1           0       -2.404245    1.146243    3.663282
     21          1           0       -4.192893    1.542008    2.047877
     22         16           0       -0.233558   -0.817463    3.737465
     23          7           0        4.673686    0.159547   -0.368747
     24          6           0        5.732508   -0.612661   -0.896564
     25          6           0        7.045695   -0.377960   -0.499452
     26          6           0        5.475865   -1.622329   -1.819567
     27          6           0        8.078745   -1.133154   -1.024558
     28          6           0        6.512871   -2.384632   -2.326214
     29          6           0        7.820306   -2.143178   -1.936900
     30          1           0        7.251646    0.403669    0.224060
     31          1           0        4.454830   -1.807304   -2.136118
     32          1           0        9.097402   -0.936530   -0.704866
     33          1           0        6.295127   -3.169013   -3.044416
     34          1           0        8.632202   -2.738403   -2.341339
     35          6           0        4.837054    1.548147   -0.168533
     36          6           0        5.516065    2.321618   -1.105787
     37          6           0        4.319017    2.163542    0.967486
     38          6           0        5.679987    3.679833   -0.902534
     39          6           0        4.472338    3.525567    1.154010
     40          6           0        5.156657    4.292005    0.224805
     41          1           0        5.917204    1.848815   -1.995947
     42          1           0        3.791670    1.566068    1.703651
     43          1           0        6.213214    4.268058   -1.642948
     44          1           0        4.061647    3.989730    2.045325
     45          1           0        5.281223    5.358830    0.377899
     46          7           0       -4.591369    0.225236   -0.235572
     47          6           0       -4.996809    1.544618   -0.539366
     48          6           0       -6.345932    1.849462   -0.693639
     49          6           0       -4.053605    2.557013   -0.688173
     50          6           0       -6.738551    3.140118   -0.998819
     51          6           0       -4.455920    3.848924   -0.975713
     52          6           0       -5.798707    4.148587   -1.137139
     53          1           0       -7.085839    1.064984   -0.575406
     54          1           0       -2.999778    2.324624   -0.576668
     55          1           0       -7.794748    3.361033   -1.117399
     56          1           0       -3.707423    4.627077   -1.088273
     57          1           0       -6.110711    5.161215   -1.369943
     58          6           0       -5.228462   -0.872905   -0.859345
     59          6           0       -5.548183   -0.824769   -2.212595
     60          6           0       -5.541916   -2.014931   -0.129127
     61          6           0       -6.178047   -1.897088   -2.818017
     62          6           0       -6.155123   -3.090236   -0.746513
     63          6           0       -6.481192   -3.037227   -2.091754
     64          1           0       -5.300925    0.061617   -2.787177
     65          1           0       -5.299559   -2.056134    0.927579
     66          1           0       -6.421719   -1.844307   -3.874525
     67          1           0       -6.390696   -3.975287   -0.163884
     68          1           0       -6.967632   -3.879890   -2.571608
 ---------------------------------------------------------------------

 SCF Done:  E(RLC-wHPBE) =  -2293.43911129     A.U. after   16 cycles

 The electronic state is 1-A.
 Alpha  occ. eigenvalues --  -88.22809 -88.22474 -14.15533 -14.14961 -10.06863
 Alpha  occ. eigenvalues --  -10.06778 -10.06576 -10.06444 -10.06216 -10.06090
 Alpha  occ. eigenvalues --  -10.06072 -10.06032 -10.05153 -10.03531 -10.03086
 Alpha  occ. eigenvalues --  -10.03083 -10.02483 -10.02457 -10.02357 -10.02317
 Alpha  occ. eigenvalues --  -10.02307 -10.02307 -10.02227 -10.02161 -10.02074
 Alpha  occ. eigenvalues --  -10.02056 -10.02033 -10.02030 -10.02025 -10.02012
 Alpha  occ. eigenvalues --  -10.02009 -10.01999 -10.01968 -10.01828 -10.01702
 Alpha  occ. eigenvalues --  -10.01694 -10.01687 -10.01682 -10.01529 -10.01508
 Alpha  occ. eigenvalues --   -7.82124  -7.81709  -5.84275  -5.83882  -5.83779
 Alpha  occ. eigenvalues --   -5.83378  -5.83012  -5.82578  -1.03630  -1.03043
 Alpha  occ. eigenvalues --   -0.95230  -0.93311  -0.93056  -0.92637  -0.91668
 Alpha  occ. eigenvalues --   -0.90981  -0.87295  -0.86324  -0.83562  -0.83045
 Alpha  occ. eigenvalues --   -0.82866  -0.82283  -0.81763  -0.81731  -0.81526
 Alpha  occ. eigenvalues --   -0.81347  -0.80611  -0.79287  -0.77042  -0.75603
 Alpha  occ. eigenvalues --   -0.70934  -0.70385  -0.70173  -0.69644  -0.68640
 Alpha  occ. eigenvalues --   -0.68242  -0.67903  -0.67494  -0.67348  -0.66631
 Alpha  occ. eigenvalues --   -0.64794  -0.64130  -0.62008  -0.61764  -0.61514
 Alpha  occ. eigenvalues --   -0.61005  -0.58124  -0.57459  -0.57100  -0.55753
 Alpha  occ. eigenvalues --   -0.55588  -0.55079  -0.54806  -0.54409  -0.53623
 Alpha  occ. eigenvalues --   -0.52997  -0.52738  -0.52549  -0.51763  -0.51576
 Alpha  occ. eigenvalues --   -0.51321  -0.50960  -0.50733  -0.50648  -0.50165
 Alpha  occ. eigenvalues --   -0.49949  -0.49819  -0.49666  -0.49424  -0.48693
 Alpha  occ. eigenvalues --   -0.48030  -0.46933  -0.46872  -0.46431  -0.46257
 Alpha  occ. eigenvalues --   -0.46027  -0.45852  -0.44187  -0.43942  -0.43480
 Alpha  occ. eigenvalues --   -0.43164  -0.43006  -0.42698  -0.42161  -0.42094
 Alpha  occ. eigenvalues --   -0.41639  -0.41512  -0.41261  -0.41002  -0.40375
 Alpha  occ. eigenvalues --   -0.39102  -0.37574  -0.36223  -0.34931  -0.34712
 Alpha  occ. eigenvalues --   -0.34417  -0.34292  -0.33786  -0.33582  -0.33170
 Alpha  occ. eigenvalues --   -0.33168  -0.31153  -0.30239  -0.25849  -0.25356
 Alpha virt. eigenvalues --    0.02165   0.02911   0.03486   0.03662   0.03766
 Alpha virt. eigenvalues --    0.04059   0.04965   0.05824   0.06031   0.06223
 Alpha virt. eigenvalues --    0.07472   0.07984   0.08807   0.10625   0.10851

 Mulliken charges:
               1
     1  C   -0.059253
     2  C   -0.268296
     3  S    0.072590
     4  C   -0.021023
     5  C    0.012982
     6  C   -0.206297
     7  C   -0.033840
     8  C   -0.034541
     9  H    0.088572
    10  C   -0.120876
    11  C   -0.110687
    12  C   -0.098946
    13  C   -0.072847
    14  H    0.149368
    15  H    0.126743
    16  H    0.150816
    17  C   -0.147486
    18  H    0.159089
    19  H    0.149885
    20  H    0.115406
    21  H    0.157887
    22  S   -0.024026
    23  N   -0.023097
    24  C   -0.052258
    25  C   -0.121359
    26  C   -0.116483
    27  C   -0.114865
    28  C   -0.114937
    29  C   -0.110524
    30  H    0.157467
    31  H    0.155877
    32  H    0.109759
    33  H    0.110325
    34  H    0.108773
    35  C   -0.051455
    36  C   -0.125714
    37  C   -0.111997
    38  C   -0.114711
    39  C   -0.116840
    40  C   -0.110994
    41  H    0.157735
    42  H    0.160543
    43  H    0.109577
    44  H    0.108805
    45  H    0.108088
    46  N   -0.022631
    47  C   -0.081868
    48  C   -0.108205
    49  C   -0.104059
    50  C   -0.119085
    51  C   -0.122639
    52  C   -0.103741
    53  H    0.157799
    54  H    0.164187
    55  H    0.111434
    56  H    0.110498
    57  H    0.110390
    58  C   -0.060528
    59  C   -0.116225
    60  C   -0.110475
    61  C   -0.112947
    62  C   -0.113448
    63  C   -0.109190
    64  H    0.155690
    65  H    0.154390
    66  H    0.111311
    67  H    0.111909
    68  H    0.110501
 Sum of Mulliken charges =  -0.00000

 Dipole moment (field-independent basis, Debye):
    X=             -0.9776    Y=              2.0831    Z=             -0.1223  Tot=              2.3043
 Quadrupole moment (field-independent basis, Debye-Ang):
   XX=           -227.9618   YY=           -235.2724   ZZ=           -238.2762
   XY=             -1.8512   XZ=             -0.3321   YZ=              7.1720

 Normal termination of Gaussian 16 at Thu Jan 28 03:43:37 2021.
