 Gaussian 16, Revision A.03,
 Gaussian 16:  EM64L-G16RevA.03 25-Dec-2016

 ----------------------------------------------------------------------
 #P LC-wHPBE/TZVP iop(3/107=0220900000, 3/108=0220900000) scf=(conver=6
 ,fermi,ndamp=35,noincfock,novaracc,vshift=500,xqc)
 ----------------------------------------------------------------------

 -------------
 H28 C36 S2 N2
 -------------
 Symbolic Z-matrix:
 Charge =  0 Multiplicity = 1

                         Standard orientation:
 ---------------------------------------------------------------------
 Center     Atomic      Atomic             Coordinates (Angstroms)
 Number     Number       Type             X           Y           Z
 ---------------------------------------------------------------------
      1          6           0       -2.604951   -0.985352    0.477595
      2          6           0       -1.595468   -1.227646    1.396897
      3         16           0       -0.459746   -2.557842    1.073663
      4          6           0       -1.509976   -0.467226    2.564163
      5          6           0        1.043777   -0.455726    0.021717
      6          6           0        1.038330   -1.682104    0.668307
      7          6           0       -3.557585    0.001751    0.697168
      8          6           0       -2.447111    0.539154    2.764444
      9          1           0       -0.596318    0.142670    4.605045
     10          6           0        2.238728    0.147647   -0.319798
     11          6           0        2.246539   -2.297832    0.961919
     12          6           0        3.442101   -1.694718    0.621166
     13          6           0        3.453096   -0.462920   -0.023837
     14          1           0        2.234263    1.106243   -0.827797
     15          1           0        2.253931   -3.248348    1.486346
     16          1           0        4.381679   -2.178238    0.866461
     17          6           0       -3.461673    0.764082    1.856276
     18          1           0       -2.646669   -1.585519   -0.424718
     19          1           0        0.106936    0.032641   -0.224382
     20          1           0       -2.404245    1.146243    3.663282
     21          1           0       -4.192893    1.542008    2.047877
     22         16           0       -0.233558   -0.817463    3.737465
     23          7           0        4.673686    0.159547   -0.368747
     24          6           0        5.732508   -0.612661   -0.896564
     25          6           0        7.045695   -0.377960   -0.499452
     26          6           0        5.475865   -1.622329   -1.819567
     27          6           0        8.078745   -1.133154   -1.024558
     28          6           0        6.512871   -2.384632   -2.326214
     29          6           0        7.820306   -2.143178   -1.936900
     30          1           0        7.251646    0.403669    0.224060
     31          1           0        4.454830   -1.807304   -2.136118
     32          1           0        9.097402   -0.936530   -0.704866
     33          1           0        6.295127   -3.169013   -3.044416
     34          1           0        8.632202   -2.738403   -2.341339
     35          6           0        4.837054    1.548147   -0.168533
     36          6           0        5.516065    2.321618   -1.105787
     37          6           0        4.319017    2.163542    0.967486
     38          6           0        5.679987    3.679833   -0.902534
     39          6           0        4.472338    3.525567    1.154010
     40          6           0        5.156657    4.292005    0.224805
     41          1           0        5.917204    1.848815   -1.995947
     42          1           0        3.791670    1.566068    1.703651
     43          1           0        6.213214    4.268058   -1.642948
     44          1           0        4.061647    3.989730    2.045325
     45          1           0        5.281223    5.358830    0.377899
     46          7           0       -4.591369    0.225236   -0.235572
     47          6           0       -4.996809    1.544618   -0.539366
     48          6           0       -6.345932    1.849462   -0.693639
     49          6           0       -4.053605    2.557013   -0.688173
     50          6           0       -6.738551    3.140118   -0.998819
     51          6           0       -4.455920    3.848924   -0.975713
     52          6           0       -5.798707    4.148587   -1.137139
     53          1           0       -7.085839    1.064984   -0.575406
     54          1           0       -2.999778    2.324624   -0.576668
     55          1           0       -7.794748    3.361033   -1.117399
     56          1           0       -3.707423    4.627077   -1.088273
     57          1           0       -6.110711    5.161215   -1.369943
     58          6           0       -5.228462   -0.872905   -0.859345
     59          6           0       -5.548183   -0.824769   -2.212595
     60          6           0       -5.541916   -2.014931   -0.129127
     61          6           0       -6.178047   -1.897088   -2.818017
     62          6           0       -6.155123   -3.090236   -0.746513
     63          6           0       -6.481192   -3.037227   -2.091754
     64          1           0       -5.300925    0.061617   -2.787177
     65          1           0       -5.299559   -2.056134    0.927579
     66          1           0       -6.421719   -1.844307   -3.874525
     67          1           0       -6.390696   -3.975287   -0.163884
     68          1           0       -6.967632   -3.879890   -2.571608
 ---------------------------------------------------------------------

 SCF Done:  E(RLC-wHPBE) =  -2293.40573941     A.U. after   16 cycles

 The electronic state is 1-A.
 Alpha  occ. eigenvalues --  -88.21921 -88.21578 -14.14669 -14.14100 -10.05912
 Alpha  occ. eigenvalues --  -10.05829 -10.05631 -10.05501 -10.05269 -10.05146
 Alpha  occ. eigenvalues --  -10.05129 -10.05086 -10.04211 -10.02593 -10.02148
 Alpha  occ. eigenvalues --  -10.02147 -10.01549 -10.01523 -10.01424 -10.01385
 Alpha  occ. eigenvalues --  -10.01376 -10.01372 -10.01299 -10.01235 -10.01148
 Alpha  occ. eigenvalues --  -10.01130 -10.01107 -10.01097 -10.01093 -10.01086
 Alpha  occ. eigenvalues --  -10.01077 -10.01067 -10.01038 -10.00900 -10.00777
 Alpha  occ. eigenvalues --  -10.00769 -10.00763 -10.00757 -10.00601 -10.00580
 Alpha  occ. eigenvalues --   -7.81214  -7.80792  -5.83390  -5.82989  -5.82898
 Alpha  occ. eigenvalues --   -5.82489  -5.82135  -5.81693  -1.02667  -1.02083
 Alpha  occ. eigenvalues --   -0.94235  -0.92328  -0.92075  -0.91657  -0.90697
 Alpha  occ. eigenvalues --   -0.90015  -0.86347  -0.85386  -0.82640  -0.82124
 Alpha  occ. eigenvalues --   -0.81949  -0.81362  -0.80845  -0.80813  -0.80609
 Alpha  occ. eigenvalues --   -0.80431  -0.79715  -0.78397  -0.76176  -0.74746
 Alpha  occ. eigenvalues --   -0.70114  -0.69567  -0.69362  -0.68833  -0.67824
 Alpha  occ. eigenvalues --   -0.67427  -0.67094  -0.66689  -0.66544  -0.65839
 Alpha  occ. eigenvalues --   -0.64014  -0.63355  -0.61254  -0.61016  -0.60763
 Alpha  occ. eigenvalues --   -0.60269  -0.57402  -0.56736  -0.56383  -0.55050
 Alpha  occ. eigenvalues --   -0.54892  -0.54388  -0.54100  -0.53732  -0.52931
 Alpha  occ. eigenvalues --   -0.52309  -0.52057  -0.51865  -0.51087  -0.50896
 Alpha  occ. eigenvalues --   -0.50655  -0.50299  -0.50072  -0.49987  -0.49496
 Alpha  occ. eigenvalues --   -0.49284  -0.49157  -0.49000  -0.48764  -0.48050
 Alpha  occ. eigenvalues --   -0.47366  -0.46286  -0.46186  -0.45745  -0.45573
 Alpha  occ. eigenvalues --   -0.45344  -0.45227  -0.43594  -0.43345  -0.42885
 Alpha  occ. eigenvalues --   -0.42567  -0.42412  -0.42100  -0.41581  -0.41525
 Alpha  occ. eigenvalues --   -0.41063  -0.40937  -0.40684  -0.40436  -0.39811
 Alpha  occ. eigenvalues --   -0.38543  -0.37048  -0.35723  -0.34485  -0.34270
 Alpha  occ. eigenvalues --   -0.33973  -0.33850  -0.33350  -0.33145  -0.32737
 Alpha  occ. eigenvalues --   -0.32732  -0.30715  -0.29795  -0.25488  -0.24996
 Alpha virt. eigenvalues --    0.01871   0.02617   0.03182   0.03354   0.03461
 Alpha virt. eigenvalues --    0.03751   0.04633   0.05483   0.05688   0.05881
 Alpha virt. eigenvalues --    0.07092   0.07638   0.08456   0.10317   0.10481

 Mulliken charges:
               1
     1  C   -0.058228
     2  C   -0.265289
     3  S    0.069836
     4  C   -0.018265
     5  C    0.015223
     6  C   -0.204165
     7  C   -0.032717
     8  C   -0.033480
     9  H    0.088789
    10  C   -0.120049
    11  C   -0.109197
    12  C   -0.097370
    13  C   -0.071555
    14  H    0.146422
    15  H    0.124235
    16  H    0.147961
    17  C   -0.145895
    18  H    0.155557
    19  H    0.147990
    20  H    0.112850
    21  H    0.154986
    22  S   -0.025991
    23  N   -0.017365
    24  C   -0.052462
    25  C   -0.119318
    26  C   -0.114397
    27  C   -0.113239
    28  C   -0.113307
    29  C   -0.107557
    30  H    0.154755
    31  H    0.153138
    32  H    0.107543
    33  H    0.108106
    34  H    0.106512
    35  C   -0.051681
    36  C   -0.123697
    37  C   -0.109824
    38  C   -0.113081
    39  C   -0.115236
    40  C   -0.108004
    41  H    0.155015
    42  H    0.157781
    43  H    0.107359
    44  H    0.106577
    45  H    0.105823
    46  N   -0.016900
    47  C   -0.082306
    48  C   -0.106124
    49  C   -0.101869
    50  C   -0.117459
    51  C   -0.121119
    52  C   -0.100711
    53  H    0.155068
    54  H    0.161679
    55  H    0.109216
    56  H    0.108261
    57  H    0.108133
    58  C   -0.060773
    59  C   -0.114194
    60  C   -0.108338
    61  C   -0.111285
    62  C   -0.111836
    63  C   -0.106253
    64  H    0.152988
    65  H    0.151677
    66  H    0.109104
    67  H    0.109695
    68  H    0.108253
 Sum of Mulliken charges =  -0.00000

 Dipole moment (field-independent basis, Debye):
    X=             -0.9744    Y=              2.0661    Z=             -0.1123  Tot=              2.2871
 Quadrupole moment (field-independent basis, Debye-Ang):
   XX=           -228.2474   YY=           -235.4691   ZZ=           -238.4023
   XY=             -1.8367   XZ=             -0.3231   YZ=              7.1211

 Normal termination of Gaussian 16 at Fri Jan 29 04:03:03 2021.
