 Gaussian 16, Revision A.03,
 Gaussian 16:  EM64L-G16RevA.03 25-Dec-2016

 ----------------------------------------------------------------------
 #P LC-wHPBE/TZVP iop(3/107=0221600000, 3/108=0221600000) scf=(conver=6
 ,fermi,ndamp=35,noincfock,novaracc,vshift=500,xqc)
 ----------------------------------------------------------------------

 -------------
 H28 C36 S2 N2
 -------------
 Symbolic Z-matrix:
 Charge =  0 Multiplicity = 1

                         Standard orientation:
 ---------------------------------------------------------------------
 Center     Atomic      Atomic             Coordinates (Angstroms)
 Number     Number       Type             X           Y           Z
 ---------------------------------------------------------------------
      1          6           0       -2.604951   -0.985352    0.477595
      2          6           0       -1.595468   -1.227646    1.396897
      3         16           0       -0.459746   -2.557842    1.073663
      4          6           0       -1.509976   -0.467226    2.564163
      5          6           0        1.043777   -0.455726    0.021717
      6          6           0        1.038330   -1.682104    0.668307
      7          6           0       -3.557585    0.001751    0.697168
      8          6           0       -2.447111    0.539154    2.764444
      9          1           0       -0.596318    0.142670    4.605045
     10          6           0        2.238728    0.147647   -0.319798
     11          6           0        2.246539   -2.297832    0.961919
     12          6           0        3.442101   -1.694718    0.621166
     13          6           0        3.453096   -0.462920   -0.023837
     14          1           0        2.234263    1.106243   -0.827797
     15          1           0        2.253931   -3.248348    1.486346
     16          1           0        4.381679   -2.178238    0.866461
     17          6           0       -3.461673    0.764082    1.856276
     18          1           0       -2.646669   -1.585519   -0.424718
     19          1           0        0.106936    0.032641   -0.224382
     20          1           0       -2.404245    1.146243    3.663282
     21          1           0       -4.192893    1.542008    2.047877
     22         16           0       -0.233558   -0.817463    3.737465
     23          7           0        4.673686    0.159547   -0.368747
     24          6           0        5.732508   -0.612661   -0.896564
     25          6           0        7.045695   -0.377960   -0.499452
     26          6           0        5.475865   -1.622329   -1.819567
     27          6           0        8.078745   -1.133154   -1.024558
     28          6           0        6.512871   -2.384632   -2.326214
     29          6           0        7.820306   -2.143178   -1.936900
     30          1           0        7.251646    0.403669    0.224060
     31          1           0        4.454830   -1.807304   -2.136118
     32          1           0        9.097402   -0.936530   -0.704866
     33          1           0        6.295127   -3.169013   -3.044416
     34          1           0        8.632202   -2.738403   -2.341339
     35          6           0        4.837054    1.548147   -0.168533
     36          6           0        5.516065    2.321618   -1.105787
     37          6           0        4.319017    2.163542    0.967486
     38          6           0        5.679987    3.679833   -0.902534
     39          6           0        4.472338    3.525567    1.154010
     40          6           0        5.156657    4.292005    0.224805
     41          1           0        5.917204    1.848815   -1.995947
     42          1           0        3.791670    1.566068    1.703651
     43          1           0        6.213214    4.268058   -1.642948
     44          1           0        4.061647    3.989730    2.045325
     45          1           0        5.281223    5.358830    0.377899
     46          7           0       -4.591369    0.225236   -0.235572
     47          6           0       -4.996809    1.544618   -0.539366
     48          6           0       -6.345932    1.849462   -0.693639
     49          6           0       -4.053605    2.557013   -0.688173
     50          6           0       -6.738551    3.140118   -0.998819
     51          6           0       -4.455920    3.848924   -0.975713
     52          6           0       -5.798707    4.148587   -1.137139
     53          1           0       -7.085839    1.064984   -0.575406
     54          1           0       -2.999778    2.324624   -0.576668
     55          1           0       -7.794748    3.361033   -1.117399
     56          1           0       -3.707423    4.627077   -1.088273
     57          1           0       -6.110711    5.161215   -1.369943
     58          6           0       -5.228462   -0.872905   -0.859345
     59          6           0       -5.548183   -0.824769   -2.212595
     60          6           0       -5.541916   -2.014931   -0.129127
     61          6           0       -6.178047   -1.897088   -2.818017
     62          6           0       -6.155123   -3.090236   -0.746513
     63          6           0       -6.481192   -3.037227   -2.091754
     64          1           0       -5.300925    0.061617   -2.787177
     65          1           0       -5.299559   -2.056134    0.927579
     66          1           0       -6.421719   -1.844307   -3.874525
     67          1           0       -6.390696   -3.975287   -0.163884
     68          1           0       -6.967632   -3.879890   -2.571608
 ---------------------------------------------------------------------

 SCF Done:  E(RLC-wHPBE) =  -2293.40718533     A.U. after   16 cycles

 The electronic state is 1-A.
 Alpha  occ. eigenvalues --  -88.21958 -88.21616 -14.14706 -14.14136 -10.05952
 Alpha  occ. eigenvalues --  -10.05869 -10.05671 -10.05541 -10.05309 -10.05186
 Alpha  occ. eigenvalues --  -10.05169 -10.05126 -10.04251 -10.02633 -10.02188
 Alpha  occ. eigenvalues --  -10.02186 -10.01589 -10.01563 -10.01463 -10.01425
 Alpha  occ. eigenvalues --  -10.01415 -10.01412 -10.01339 -10.01274 -10.01188
 Alpha  occ. eigenvalues --  -10.01170 -10.01146 -10.01137 -10.01132 -10.01126
 Alpha  occ. eigenvalues --  -10.01116 -10.01107 -10.01078 -10.00940 -10.00816
 Alpha  occ. eigenvalues --  -10.00808 -10.00802 -10.00797 -10.00640 -10.00619
 Alpha  occ. eigenvalues --   -7.81253  -7.80830  -5.83427  -5.83027  -5.82935
 Alpha  occ. eigenvalues --   -5.82527  -5.82172  -5.81731  -1.02708  -1.02124
 Alpha  occ. eigenvalues --   -0.94278  -0.92370  -0.92116  -0.91699  -0.90739
 Alpha  occ. eigenvalues --   -0.90056  -0.86388  -0.85426  -0.82679  -0.82163
 Alpha  occ. eigenvalues --   -0.81989  -0.81401  -0.80885  -0.80852  -0.80648
 Alpha  occ. eigenvalues --   -0.80470  -0.79753  -0.78435  -0.76213  -0.74783
 Alpha  occ. eigenvalues --   -0.70149  -0.69602  -0.69397  -0.68868  -0.67859
 Alpha  occ. eigenvalues --   -0.67462  -0.67129  -0.66723  -0.66579  -0.65873
 Alpha  occ. eigenvalues --   -0.64048  -0.63388  -0.61287  -0.61048  -0.60795
 Alpha  occ. eigenvalues --   -0.60301  -0.57433  -0.56767  -0.56414  -0.55080
 Alpha  occ. eigenvalues --   -0.54922  -0.54418  -0.54130  -0.53761  -0.52961
 Alpha  occ. eigenvalues --   -0.52339  -0.52086  -0.51895  -0.51116  -0.50925
 Alpha  occ. eigenvalues --   -0.50683  -0.50327  -0.50100  -0.50016  -0.49525
 Alpha  occ. eigenvalues --   -0.49313  -0.49185  -0.49028  -0.48793  -0.48077
 Alpha  occ. eigenvalues --   -0.47395  -0.46314  -0.46216  -0.45775  -0.45603
 Alpha  occ. eigenvalues --   -0.45374  -0.45254  -0.43620  -0.43371  -0.42911
 Alpha  occ. eigenvalues --   -0.42593  -0.42437  -0.42126  -0.41606  -0.41550
 Alpha  occ. eigenvalues --   -0.41088  -0.40962  -0.40709  -0.40461  -0.39835
 Alpha  occ. eigenvalues --   -0.38568  -0.37071  -0.35745  -0.34505  -0.34289
 Alpha  occ. eigenvalues --   -0.33993  -0.33870  -0.33369  -0.33164  -0.32756
 Alpha  occ. eigenvalues --   -0.32751  -0.30734  -0.29815  -0.25504  -0.25012
 Alpha virt. eigenvalues --    0.01884   0.02630   0.03195   0.03368   0.03474
 Alpha virt. eigenvalues --    0.03765   0.04648   0.05499   0.05704   0.05897
 Alpha virt. eigenvalues --    0.07109   0.07654   0.08472   0.10331   0.10498

 Mulliken charges:
               1
     1  C   -0.058270
     2  C   -0.265422
     3  S    0.069959
     4  C   -0.018377
     5  C    0.015125
     6  C   -0.204247
     7  C   -0.032759
     8  C   -0.033530
     9  H    0.088779
    10  C   -0.120081
    11  C   -0.109266
    12  C   -0.097431
    13  C   -0.071604
    14  H    0.146542
    15  H    0.124337
    16  H    0.148078
    17  C   -0.145959
    18  H    0.155703
    19  H    0.148066
    20  H    0.112954
    21  H    0.155104
    22  S   -0.025904
    23  N   -0.017607
    24  C   -0.052447
    25  C   -0.119399
    26  C   -0.114480
    27  C   -0.113308
    28  C   -0.113376
    29  C   -0.107677
    30  H    0.154866
    31  H    0.153250
    32  H    0.107632
    33  H    0.108196
    34  H    0.106604
    35  C   -0.051664
    36  C   -0.123778
    37  C   -0.109911
    38  C   -0.113150
    39  C   -0.115303
    40  C   -0.108125
    41  H    0.155126
    42  H    0.157894
    43  H    0.107449
    44  H    0.106667
    45  H    0.105914
    46  N   -0.017142
    47  C   -0.082281
    48  C   -0.106207
    49  C   -0.101956
    50  C   -0.117528
    51  C   -0.121183
    52  C   -0.100834
    53  H    0.155180
    54  H    0.161781
    55  H    0.109305
    56  H    0.108352
    57  H    0.108224
    58  C   -0.060756
    59  C   -0.114276
    60  C   -0.108423
    61  C   -0.111355
    62  C   -0.111904
    63  C   -0.106372
    64  H    0.153099
    65  H    0.151788
    66  H    0.109193
    67  H    0.109784
    68  H    0.108343
 Sum of Mulliken charges =  -0.00000

 Dipole moment (field-independent basis, Debye):
    X=             -0.9746    Y=              2.0669    Z=             -0.1128  Tot=              2.2879
 Quadrupole moment (field-independent basis, Debye-Ang):
   XX=           -228.2352   YY=           -235.4608   ZZ=           -238.3969
   XY=             -1.8373   XZ=             -0.3235   YZ=              7.1232

 Normal termination of Gaussian 16 at Fri Jan 29 12:10:35 2021.
