 Gaussian 16, Revision A.03,
 Gaussian 16:  EM64L-G16RevA.03 25-Dec-2016

 ----------------------------------------------------------------------
 #P LC-wHPBE/TZVP iop(3/107=0328100000, 3/108=0328100000) scf=(conver=6
 ,fermi,ndamp=35,noincfock,novaracc,vshift=500,xqc)
 ----------------------------------------------------------------------

 -------------
 H28 C36 S2 N2
 -------------
 Symbolic Z-matrix:
 Charge =  1 Multiplicity = 2

                         Standard orientation:
 ---------------------------------------------------------------------
 Center     Atomic      Atomic             Coordinates (Angstroms)
 Number     Number       Type             X           Y           Z
 ---------------------------------------------------------------------
      1          6           0       -2.604951   -0.985352    0.477595
      2          6           0       -1.595468   -1.227646    1.396897
      3         16           0       -0.459746   -2.557842    1.073663
      4          6           0       -1.509976   -0.467226    2.564163
      5          6           0        1.043777   -0.455726    0.021717
      6          6           0        1.038330   -1.682104    0.668307
      7          6           0       -3.557585    0.001751    0.697168
      8          6           0       -2.447111    0.539154    2.764444
      9          1           0       -0.596318    0.142670    4.605045
     10          6           0        2.238728    0.147647   -0.319798
     11          6           0        2.246539   -2.297832    0.961919
     12          6           0        3.442101   -1.694718    0.621166
     13          6           0        3.453096   -0.462920   -0.023837
     14          1           0        2.234263    1.106243   -0.827797
     15          1           0        2.253931   -3.248348    1.486346
     16          1           0        4.381679   -2.178238    0.866461
     17          6           0       -3.461673    0.764082    1.856276
     18          1           0       -2.646669   -1.585519   -0.424718
     19          1           0        0.106936    0.032641   -0.224382
     20          1           0       -2.404245    1.146243    3.663282
     21          1           0       -4.192893    1.542008    2.047877
     22         16           0       -0.233558   -0.817463    3.737465
     23          7           0        4.673686    0.159547   -0.368747
     24          6           0        5.732508   -0.612661   -0.896564
     25          6           0        7.045695   -0.377960   -0.499452
     26          6           0        5.475865   -1.622329   -1.819567
     27          6           0        8.078745   -1.133154   -1.024558
     28          6           0        6.512871   -2.384632   -2.326214
     29          6           0        7.820306   -2.143178   -1.936900
     30          1           0        7.251646    0.403669    0.224060
     31          1           0        4.454830   -1.807304   -2.136118
     32          1           0        9.097402   -0.936530   -0.704866
     33          1           0        6.295127   -3.169013   -3.044416
     34          1           0        8.632202   -2.738403   -2.341339
     35          6           0        4.837054    1.548147   -0.168533
     36          6           0        5.516065    2.321618   -1.105787
     37          6           0        4.319017    2.163542    0.967486
     38          6           0        5.679987    3.679833   -0.902534
     39          6           0        4.472338    3.525567    1.154010
     40          6           0        5.156657    4.292005    0.224805
     41          1           0        5.917204    1.848815   -1.995947
     42          1           0        3.791670    1.566068    1.703651
     43          1           0        6.213214    4.268058   -1.642948
     44          1           0        4.061647    3.989730    2.045325
     45          1           0        5.281223    5.358830    0.377899
     46          7           0       -4.591369    0.225236   -0.235572
     47          6           0       -4.996809    1.544618   -0.539366
     48          6           0       -6.345932    1.849462   -0.693639
     49          6           0       -4.053605    2.557013   -0.688173
     50          6           0       -6.738551    3.140118   -0.998819
     51          6           0       -4.455920    3.848924   -0.975713
     52          6           0       -5.798707    4.148587   -1.137139
     53          1           0       -7.085839    1.064984   -0.575406
     54          1           0       -2.999778    2.324624   -0.576668
     55          1           0       -7.794748    3.361033   -1.117399
     56          1           0       -3.707423    4.627077   -1.088273
     57          1           0       -6.110711    5.161215   -1.369943
     58          6           0       -5.228462   -0.872905   -0.859345
     59          6           0       -5.548183   -0.824769   -2.212595
     60          6           0       -5.541916   -2.014931   -0.129127
     61          6           0       -6.178047   -1.897088   -2.818017
     62          6           0       -6.155123   -3.090236   -0.746513
     63          6           0       -6.481192   -3.037227   -2.091754
     64          1           0       -5.300925    0.061617   -2.787177
     65          1           0       -5.299559   -2.056134    0.927579
     66          1           0       -6.421719   -1.844307   -3.874525
     67          1           0       -6.390696   -3.975287   -0.163884
     68          1           0       -6.967632   -3.879890   -2.571608
 ---------------------------------------------------------------------

 SCF Done:  E(ULC-wHPBE) =  -2293.33087104     A.U. after   33 cycles
 SCF Done:  E(ULC-wHPBE) =  -2293.33578240     a.u. after    6 cycles

 The electronic state is 2-A.
 Alpha  occ. eigenvalues --  -88.39774 -88.37527 -14.41382 -14.26151 -10.26627
 Alpha  occ. eigenvalues --  -10.26001 -10.25891 -10.25653 -10.23734 -10.22443
 Alpha  occ. eigenvalues --  -10.22268 -10.21469 -10.21374 -10.21360 -10.21311
 Alpha  occ. eigenvalues --  -10.21247 -10.20453 -10.20308 -10.20137 -10.20104
 Alpha  occ. eigenvalues --  -10.19965 -10.19952 -10.18849 -10.18818 -10.17263
 Alpha  occ. eigenvalues --  -10.16930 -10.15910 -10.15528 -10.14880 -10.14626
 Alpha  occ. eigenvalues --  -10.13007 -10.12831 -10.12819 -10.12596 -10.12509
 Alpha  occ. eigenvalues --  -10.12434 -10.12408 -10.12354 -10.12276 -10.11907
 Alpha  occ. eigenvalues --   -7.99136  -7.96885  -6.01073  -6.00534  -5.99897
 Alpha  occ. eigenvalues --   -5.98892  -5.98330  -5.97501  -1.26287  -1.14661
 Alpha  occ. eigenvalues --   -1.13778  -1.12022  -1.10453  -1.06912  -1.05067
 Alpha  occ. eigenvalues --   -1.03584  -1.03252  -1.02051  -1.01530  -1.00334
 Alpha  occ. eigenvalues --   -0.99772  -0.98666  -0.97651  -0.94964  -0.94756
 Alpha  occ. eigenvalues --   -0.93025  -0.92784  -0.91782  -0.91484  -0.88956
 Alpha  occ. eigenvalues --   -0.88017  -0.87839  -0.86045  -0.85303  -0.84460
 Alpha  occ. eigenvalues --   -0.82067  -0.81388  -0.80287  -0.79320  -0.78918
 Alpha  occ. eigenvalues --   -0.78191  -0.77246  -0.76975  -0.74866  -0.74717
 Alpha  occ. eigenvalues --   -0.74310  -0.72849  -0.71876  -0.71730  -0.71028
 Alpha  occ. eigenvalues --   -0.70516  -0.69363  -0.68073  -0.67749  -0.67522
 Alpha  occ. eigenvalues --   -0.67249  -0.66730  -0.66247  -0.65919  -0.65762
 Alpha  occ. eigenvalues --   -0.64779  -0.64212  -0.64112  -0.63566  -0.63060
 Alpha  occ. eigenvalues --   -0.62842  -0.62282  -0.61331  -0.60985  -0.60776
 Alpha  occ. eigenvalues --   -0.60138  -0.59780  -0.59623  -0.59294  -0.58843
 Alpha  occ. eigenvalues --   -0.58728  -0.58263  -0.57908  -0.57437  -0.57173
 Alpha  occ. eigenvalues --   -0.56888  -0.55288  -0.55192  -0.54794  -0.54089
 Alpha  occ. eigenvalues --   -0.53393  -0.53052  -0.51939  -0.51199  -0.50363
 Alpha  occ. eigenvalues --   -0.50150  -0.49896  -0.49588  -0.49119  -0.48532
 Alpha  occ. eigenvalues --   -0.48305  -0.46391  -0.45853  -0.43780  -0.42632
 Alpha  occ. eigenvalues --   -0.41819  -0.41280  -0.40974  -0.40336  -0.33579
 Alpha virt. eigenvalues --   -0.09437  -0.09009  -0.08477  -0.06656  -0.05736
 Alpha virt. eigenvalues --   -0.04221  -0.03310  -0.02178  -0.01352  -0.00415
 Alpha virt. eigenvalues --    0.00585   0.00751   0.01797   0.01973   0.02450

  Beta  occ. eigenvalues --  -88.39737 -88.37525 -14.40435 -14.26151 -10.26695
  Beta  occ. eigenvalues --  -10.26116 -10.26001 -10.25420 -10.23832 -10.22264
  Beta  occ. eigenvalues --  -10.22096 -10.21470 -10.21290 -10.21185 -10.21132
  Beta  occ. eigenvalues --  -10.21073 -10.20278 -10.20233 -10.20199 -10.20127
  Beta  occ. eigenvalues --  -10.20065 -10.20047 -10.18850 -10.18826 -10.17263
  Beta  occ. eigenvalues --  -10.16930 -10.15910 -10.15529 -10.14879 -10.14625
  Beta  occ. eigenvalues --  -10.13007 -10.12831 -10.12819 -10.12596 -10.12509
  Beta  occ. eigenvalues --  -10.12434 -10.12408 -10.12354 -10.12276 -10.11907
  Beta  occ. eigenvalues --   -7.99098  -7.96883  -6.01051  -6.00513  -5.99788
  Beta  occ. eigenvalues --   -5.98888  -5.98328  -5.97499  -1.25082  -1.14660
  Beta  occ. eigenvalues --   -1.13517  -1.11818  -1.10142  -1.06875  -1.04743
  Beta  occ. eigenvalues --   -1.03581  -1.03183  -1.01972  -1.01421  -1.00150
  Beta  occ. eigenvalues --   -0.99617  -0.98377  -0.97514  -0.94943  -0.94302
  Beta  occ. eigenvalues --   -0.93024  -0.92702  -0.91765  -0.91443  -0.88761
  Beta  occ. eigenvalues --   -0.87705  -0.87680  -0.85803  -0.85125  -0.84304
  Beta  occ. eigenvalues --   -0.81972  -0.81358  -0.80204  -0.79164  -0.78909
  Beta  occ. eigenvalues --   -0.78105  -0.77239  -0.76930  -0.74866  -0.74433
  Beta  occ. eigenvalues --   -0.73771  -0.72329  -0.71801  -0.71466  -0.71026
  Beta  occ. eigenvalues --   -0.70224  -0.69281  -0.67969  -0.67561  -0.67423
  Beta  occ. eigenvalues --   -0.67124  -0.66583  -0.66158  -0.65815  -0.65695
  Beta  occ. eigenvalues --   -0.64410  -0.64158  -0.63532  -0.63264  -0.62702
  Beta  occ. eigenvalues --   -0.62366  -0.62248  -0.61226  -0.60877  -0.60626
  Beta  occ. eigenvalues --   -0.59935  -0.59675  -0.59494  -0.58886  -0.58746
  Beta  occ. eigenvalues --   -0.58256  -0.58004  -0.57885  -0.57320  -0.57002
  Beta  occ. eigenvalues --   -0.56100  -0.55286  -0.55024  -0.54791  -0.53641
  Beta  occ. eigenvalues --   -0.53094  -0.51942  -0.51470  -0.51192  -0.50323
  Beta  occ. eigenvalues --   -0.49811  -0.49479  -0.49096  -0.48586  -0.48112
  Beta  occ. eigenvalues --   -0.47811  -0.45871  -0.43777  -0.43330  -0.41818
  Beta  occ. eigenvalues --   -0.41272  -0.40959  -0.40325  -0.33571
  Beta virt. eigenvalues --   -0.23162  -0.08742  -0.08315  -0.07753  -0.05972
  Beta virt. eigenvalues --   -0.05127  -0.03304  -0.02547  -0.02132  -0.01285
  Beta virt. eigenvalues --   -0.00413   0.00650   0.00769   0.01865   0.02002

 Mulliken charges and spin densities:
               1          2
     1  C   -0.021457   0.127432
     2  C   -0.321421  -0.096510
     3  S    0.126660   0.004552
     4  C   -0.014082   0.170360
     5  C    0.011426  -0.000652
     6  C   -0.235697  -0.001561
     7  C   -0.062457  -0.030386
     8  C   -0.031352  -0.100702
     9  H    0.111042  -0.001921
    10  C   -0.127062   0.000447
    11  C   -0.103922  -0.002028
    12  C   -0.109411   0.001032
    13  C   -0.087751  -0.000579
    14  H    0.175190  -0.000052
    15  H    0.156888  -0.000138
    16  H    0.184514  -0.000044
    17  C   -0.136214   0.130627
    18  H    0.206780  -0.005856
    19  H    0.136506  -0.000257
    20  H    0.167194   0.003665
    21  H    0.205239  -0.005725
    22  S    0.089933   0.076734
    23  N   -0.052775   0.000074
    24  C   -0.053476  -0.000020
    25  C   -0.133652   0.000026
    26  C   -0.132979   0.000033
    27  C   -0.123473  -0.000017
    28  C   -0.123364  -0.000021
    29  C   -0.125355   0.000039
    30  H    0.179335  -0.000001
    31  H    0.165185  -0.000003
    32  H    0.135171   0.000001
    33  H    0.131097   0.000001
    34  H    0.135058  -0.000002
    35  C   -0.053213   0.000019
    36  C   -0.137598  -0.000011
    37  C   -0.129757  -0.000012
    38  C   -0.124020   0.000001
    39  C   -0.125268   0.000008
    40  C   -0.128724  -0.000001
    41  H    0.182266   0.000001
    42  H    0.164835   0.000000
    43  H    0.135046  -0.000000
    44  H    0.125597   0.000001
    45  H    0.132864  -0.000000
    46  N    0.074527   0.424179
    47  C   -0.114965  -0.071356
    48  C   -0.094924   0.134829
    49  C   -0.091760   0.135075
    50  C   -0.127030  -0.101565
    51  C   -0.130472  -0.103546
    52  C   -0.079051   0.167545
    53  H    0.205013  -0.005361
    54  H    0.211103  -0.004789
    55  H    0.166087   0.004506
    56  H    0.164298   0.004675
    57  H    0.168859  -0.007847
    58  C   -0.091681  -0.066831
    59  C   -0.103053   0.133147
    60  C   -0.098270   0.134266
    61  C   -0.121057  -0.100839
    62  C   -0.121428  -0.103141
    63  C   -0.084274   0.167955
    64  H    0.203026  -0.005351
    65  H    0.201077  -0.005360
    66  H    0.165825   0.004473
    67  H    0.165854   0.004656
    68  H    0.168950  -0.007870
 Sum of Mulliken charges =   1.00000   1.00000

 Dipole moment (field-independent basis, Debye):
    X=            -17.6050    Y=              2.6783    Z=             -0.1470  Tot=             17.8082
 Quadrupole moment (field-independent basis, Debye-Ang):
   XX=            -98.0874   YY=           -197.8988   ZZ=           -211.4610
   XY=             -7.4676   XZ=             14.4514   YZ=              6.4341

 Normal termination of Gaussian 16 at Wed Jan 27 15:21:51 2021.
