 Gaussian 16, Revision A.03,
 Gaussian 16:  EM64L-G16RevA.03 25-Dec-2016

 ----------------------------------------------------------------------
 #P LC-wHPBE/TZVP iop(3/107=0224100000, 3/108=0224100000) scf=(conver=6
 ,fermi,ndamp=35,noincfock,novaracc,vshift=500,xqc)
 ----------------------------------------------------------------------

 -------------
 H28 C36 S2 N2
 -------------
 Symbolic Z-matrix:
 Charge =  1 Multiplicity = 2

                         Standard orientation:
 ---------------------------------------------------------------------
 Center     Atomic      Atomic             Coordinates (Angstroms)
 Number     Number       Type             X           Y           Z
 ---------------------------------------------------------------------
      1          6           0       -2.604951   -0.985352    0.477595
      2          6           0       -1.595468   -1.227646    1.396897
      3         16           0       -0.459746   -2.557842    1.073663
      4          6           0       -1.509976   -0.467226    2.564163
      5          6           0        1.043777   -0.455726    0.021717
      6          6           0        1.038330   -1.682104    0.668307
      7          6           0       -3.557585    0.001751    0.697168
      8          6           0       -2.447111    0.539154    2.764444
      9          1           0       -0.596318    0.142670    4.605045
     10          6           0        2.238728    0.147647   -0.319798
     11          6           0        2.246539   -2.297832    0.961919
     12          6           0        3.442101   -1.694718    0.621166
     13          6           0        3.453096   -0.462920   -0.023837
     14          1           0        2.234263    1.106243   -0.827797
     15          1           0        2.253931   -3.248348    1.486346
     16          1           0        4.381679   -2.178238    0.866461
     17          6           0       -3.461673    0.764082    1.856276
     18          1           0       -2.646669   -1.585519   -0.424718
     19          1           0        0.106936    0.032641   -0.224382
     20          1           0       -2.404245    1.146243    3.663282
     21          1           0       -4.192893    1.542008    2.047877
     22         16           0       -0.233558   -0.817463    3.737465
     23          7           0        4.673686    0.159547   -0.368747
     24          6           0        5.732508   -0.612661   -0.896564
     25          6           0        7.045695   -0.377960   -0.499452
     26          6           0        5.475865   -1.622329   -1.819567
     27          6           0        8.078745   -1.133154   -1.024558
     28          6           0        6.512871   -2.384632   -2.326214
     29          6           0        7.820306   -2.143178   -1.936900
     30          1           0        7.251646    0.403669    0.224060
     31          1           0        4.454830   -1.807304   -2.136118
     32          1           0        9.097402   -0.936530   -0.704866
     33          1           0        6.295127   -3.169013   -3.044416
     34          1           0        8.632202   -2.738403   -2.341339
     35          6           0        4.837054    1.548147   -0.168533
     36          6           0        5.516065    2.321618   -1.105787
     37          6           0        4.319017    2.163542    0.967486
     38          6           0        5.679987    3.679833   -0.902534
     39          6           0        4.472338    3.525567    1.154010
     40          6           0        5.156657    4.292005    0.224805
     41          1           0        5.917204    1.848815   -1.995947
     42          1           0        3.791670    1.566068    1.703651
     43          1           0        6.213214    4.268058   -1.642948
     44          1           0        4.061647    3.989730    2.045325
     45          1           0        5.281223    5.358830    0.377899
     46          7           0       -4.591369    0.225236   -0.235572
     47          6           0       -4.996809    1.544618   -0.539366
     48          6           0       -6.345932    1.849462   -0.693639
     49          6           0       -4.053605    2.557013   -0.688173
     50          6           0       -6.738551    3.140118   -0.998819
     51          6           0       -4.455920    3.848924   -0.975713
     52          6           0       -5.798707    4.148587   -1.137139
     53          1           0       -7.085839    1.064984   -0.575406
     54          1           0       -2.999778    2.324624   -0.576668
     55          1           0       -7.794748    3.361033   -1.117399
     56          1           0       -3.707423    4.627077   -1.088273
     57          1           0       -6.110711    5.161215   -1.369943
     58          6           0       -5.228462   -0.872905   -0.859345
     59          6           0       -5.548183   -0.824769   -2.212595
     60          6           0       -5.541916   -2.014931   -0.129127
     61          6           0       -6.178047   -1.897088   -2.818017
     62          6           0       -6.155123   -3.090236   -0.746513
     63          6           0       -6.481192   -3.037227   -2.091754
     64          1           0       -5.300925    0.061617   -2.787177
     65          1           0       -5.299559   -2.056134    0.927579
     66          1           0       -6.421719   -1.844307   -3.874525
     67          1           0       -6.390696   -3.975287   -0.163884
     68          1           0       -6.967632   -3.879890   -2.571608
 ---------------------------------------------------------------------

 SCF Done:  E(ULC-wHPBE) =  -2293.16369004     A.U. after   33 cycles
 SCF Done:  E(ULC-wHPBE) =  -2293.16519897     a.u. after    7 cycles

 The electronic state is 2-A.
 Alpha  occ. eigenvalues --  -88.34481 -88.31999 -14.34616 -14.20879 -10.20515
 Alpha  occ. eigenvalues --  -10.19747 -10.19660 -10.19639 -10.17872 -10.16336
 Alpha  occ. eigenvalues --  -10.16094 -10.15536 -10.15251 -10.15129 -10.15097
 Alpha  occ. eigenvalues --  -10.15024 -10.14290 -10.14154 -10.14094 -10.14057
 Alpha  occ. eigenvalues --  -10.13926 -10.13920 -10.13026 -10.13016 -10.11443
 Alpha  occ. eigenvalues --  -10.11122 -10.10127 -10.09773 -10.09158 -10.08932
 Alpha  occ. eigenvalues --  -10.07250 -10.07129 -10.07062 -10.06894 -10.06773
 Alpha  occ. eigenvalues --  -10.06731 -10.06668 -10.06634 -10.06584 -10.06203
 Alpha  occ. eigenvalues --   -7.93681  -7.91196  -5.95820  -5.95312  -5.94726
 Alpha  occ. eigenvalues --   -5.93410  -5.92880  -5.92084  -1.19598  -1.08859
 Alpha  occ. eigenvalues --   -1.07600  -1.05693  -1.04241  -1.01007  -0.99318
 Alpha  occ. eigenvalues --   -0.97712  -0.97513  -0.96254  -0.95788  -0.94582
 Alpha  occ. eigenvalues --   -0.93990  -0.93129  -0.92193  -0.89598  -0.89467
 Alpha  occ. eigenvalues --   -0.87683  -0.87504  -0.86459  -0.86183  -0.83890
 Alpha  occ. eigenvalues --   -0.83097  -0.82819  -0.81122  -0.80344  -0.79617
 Alpha  occ. eigenvalues --   -0.77416  -0.76741  -0.75729  -0.74732  -0.74363
 Alpha  occ. eigenvalues --   -0.73714  -0.72713  -0.72500  -0.70512  -0.70413
 Alpha  occ. eigenvalues --   -0.69913  -0.68450  -0.67836  -0.67693  -0.66911
 Alpha  occ. eigenvalues --   -0.66385  -0.65329  -0.64250  -0.63788  -0.63517
 Alpha  occ. eigenvalues --   -0.63301  -0.62772  -0.62309  -0.61951  -0.61936
 Alpha  occ. eigenvalues --   -0.60910  -0.60363  -0.60312  -0.59819  -0.59200
 Alpha  occ. eigenvalues --   -0.59074  -0.58559  -0.57959  -0.57348  -0.57189
 Alpha  occ. eigenvalues --   -0.56491  -0.56134  -0.56017  -0.55692  -0.55260
 Alpha  occ. eigenvalues --   -0.55184  -0.54717  -0.54409  -0.54073  -0.53915
 Alpha  occ. eigenvalues --   -0.53609  -0.52176  -0.51726  -0.51268  -0.51109
 Alpha  occ. eigenvalues --   -0.50507  -0.49958  -0.48768  -0.48036  -0.47635
 Alpha  occ. eigenvalues --   -0.47378  -0.47139  -0.46622  -0.46395  -0.46075
 Alpha  occ. eigenvalues --   -0.45785  -0.43937  -0.43218  -0.41666  -0.40396
 Alpha  occ. eigenvalues --   -0.39730  -0.39186  -0.38897  -0.38301  -0.31862
 Alpha virt. eigenvalues --   -0.10714  -0.10313  -0.09657  -0.08056  -0.07139
 Alpha virt. eigenvalues --   -0.05625  -0.04996  -0.03748  -0.03286  -0.01987
 Alpha virt. eigenvalues --   -0.00946  -0.00671  -0.00132   0.00231   0.01038

  Beta  occ. eigenvalues --  -88.34437 -88.31995 -14.33793 -14.20875 -10.20531
  Beta  occ. eigenvalues --  -10.19813 -10.19701 -10.19463 -10.17921 -10.16193
  Beta  occ. eigenvalues --  -10.15970 -10.15588 -10.15112 -10.14994 -10.14958
  Beta  occ. eigenvalues --  -10.14890 -10.14173 -10.14139 -10.14104 -10.14022
  Beta  occ. eigenvalues --  -10.13988 -10.13964 -10.13030 -10.13015 -10.11443
  Beta  occ. eigenvalues --  -10.11123 -10.10126 -10.09774 -10.09158 -10.08931
  Beta  occ. eigenvalues --  -10.07250 -10.07128 -10.07062 -10.06893 -10.06773
  Beta  occ. eigenvalues --  -10.06731 -10.06668 -10.06634 -10.06583 -10.06202
  Beta  occ. eigenvalues --   -7.93637  -7.91192  -5.95793  -5.95286  -5.94600
  Beta  occ. eigenvalues --   -5.93406  -5.92876  -5.92076  -1.18559  -1.08854
  Beta  occ. eigenvalues --   -1.07359  -1.05511  -1.03986  -1.00969  -0.99031
  Beta  occ. eigenvalues --   -0.97706  -0.97446  -0.96189  -0.95668  -0.94419
  Beta  occ. eigenvalues --   -0.93853  -0.92906  -0.92082  -0.89524  -0.89130
  Beta  occ. eigenvalues --   -0.87681  -0.87430  -0.86442  -0.86162  -0.83723
  Beta  occ. eigenvalues --   -0.82822  -0.82698  -0.80927  -0.80177  -0.79477
  Beta  occ. eigenvalues --   -0.77324  -0.76715  -0.75646  -0.74585  -0.74351
  Beta  occ. eigenvalues --   -0.73627  -0.72699  -0.72472  -0.70511  -0.70185
  Beta  occ. eigenvalues --   -0.69574  -0.68087  -0.67716  -0.67526  -0.66909
  Beta  occ. eigenvalues --   -0.66127  -0.65253  -0.64160  -0.63653  -0.63428
  Beta  occ. eigenvalues --   -0.63188  -0.62675  -0.62211  -0.61912  -0.61855
  Beta  occ. eigenvalues --   -0.60643  -0.60329  -0.60053  -0.59446  -0.59031
  Beta  occ. eigenvalues --   -0.58636  -0.58531  -0.57836  -0.57286  -0.57085
  Beta  occ. eigenvalues --   -0.56363  -0.56083  -0.55910  -0.55319  -0.55178
  Beta  occ. eigenvalues --   -0.54706  -0.54693  -0.54381  -0.53947  -0.53809
  Beta  occ. eigenvalues --   -0.53091  -0.52036  -0.51722  -0.51262  -0.50746
  Beta  occ. eigenvalues --   -0.49958  -0.49134  -0.48762  -0.48027  -0.47315
  Beta  occ. eigenvalues --   -0.47029  -0.46700  -0.46517  -0.46018  -0.45737
  Beta  occ. eigenvalues --   -0.45517  -0.43223  -0.41665  -0.41331  -0.39726
  Beta  occ. eigenvalues --   -0.39170  -0.38859  -0.38273  -0.31808
  Beta virt. eigenvalues --   -0.23817  -0.10117  -0.09659  -0.09038  -0.07569
  Beta virt. eigenvalues --   -0.06689  -0.04966  -0.04394  -0.03721  -0.03217
  Beta virt. eigenvalues --   -0.01983  -0.00941  -0.00594  -0.00038   0.00238

 Mulliken charges and spin densities:
               1          2
     1  C   -0.018047   0.082976
     2  C   -0.305236  -0.054021
     3  S    0.120533   0.008630
     4  C   -0.005192   0.136077
     5  C    0.021043  -0.000381
     6  C   -0.220521   0.000054
     7  C   -0.045384   0.011420
     8  C   -0.021397  -0.058050
     9  H    0.112791  -0.002261
    10  C   -0.118031  -0.000071
    11  C   -0.098600  -0.001909
    12  C   -0.096224   0.001698
    13  C   -0.077400   0.000324
    14  H    0.155221  -0.000003
    15  H    0.140384  -0.000019
    16  H    0.165478  -0.000079
    17  C   -0.127976   0.097478
    18  H    0.184059  -0.003978
    19  H    0.124000  -0.000188
    20  H    0.150818   0.001882
    21  H    0.186345  -0.004550
    22  S    0.091908   0.093927
    23  N   -0.016919   0.001694
    24  C   -0.051425  -0.000191
    25  C   -0.117995   0.000444
    26  C   -0.116155   0.000446
    27  C   -0.113686  -0.000262
    28  C   -0.113417  -0.000296
    29  C   -0.104456   0.000580
    30  H    0.160899  -0.000017
    31  H    0.146299  -0.000025
    32  H    0.119954   0.000012
    33  H    0.115757   0.000016
    34  H    0.119756  -0.000029
    35  C   -0.050826  -0.000201
    36  C   -0.122232   0.000463
    37  C   -0.111955   0.000463
    38  C   -0.114225  -0.000290
    39  C   -0.115249  -0.000267
    40  C   -0.107574   0.000579
    41  H    0.163802  -0.000018
    42  H    0.144737  -0.000061
    43  H    0.119829   0.000011
    44  H    0.109788   0.000021
    45  H    0.117425  -0.000029
    46  N    0.082665   0.367370
    47  C   -0.104967  -0.032509
    48  C   -0.083905   0.098405
    49  C   -0.080453   0.098858
    50  C   -0.113868  -0.061472
    51  C   -0.117779  -0.063591
    52  C   -0.065693   0.127082
    53  H    0.185928  -0.004073
    54  H    0.192100  -0.003620
    55  H    0.150870   0.002926
    56  H    0.148649   0.003101
    57  H    0.153511  -0.006250
    58  C   -0.080667  -0.029156
    59  C   -0.092411   0.097469
    60  C   -0.086849   0.098575
    61  C   -0.107740  -0.061184
    62  C   -0.108361  -0.063166
    63  C   -0.071481   0.127695
    64  H    0.183983  -0.004080
    65  H    0.181096  -0.004098
    66  H    0.150601   0.002908
    67  H    0.150432   0.003095
    68  H    0.153637  -0.006284
 Sum of Mulliken charges =   1.00000   1.00000

 Dipole moment (field-independent basis, Debye):
    X=            -16.7817    Y=              2.4972    Z=              0.1584  Tot=             16.9672
 Quadrupole moment (field-independent basis, Debye-Ang):
   XX=           -101.0069   YY=           -199.0490   ZZ=           -211.3899
   XY=             -7.2029   XZ=             13.6945   YZ=              5.9992

 Normal termination of Gaussian 16 at Fri Jan 29 03:31:25 2021.
