 Gaussian 16, Revision A.03,
 Gaussian 16:  EM64L-G16RevA.03 25-Dec-2016

 ----------------------------------------------------------------------
 #P LC-wHPBE/TZVP iop(3/107=0262500000, 3/108=0262500000) scf=(conver=6
 ,fermi,ndamp=35,noincfock,novaracc,vshift=500,xqc)
 ----------------------------------------------------------------------

 -------------
 H28 C36 S2 N2
 -------------
 Symbolic Z-matrix:
 Charge =  0 Multiplicity = 1

                         Standard orientation:
 ---------------------------------------------------------------------
 Center     Atomic      Atomic             Coordinates (Angstroms)
 Number     Number       Type             X           Y           Z
 ---------------------------------------------------------------------
      1          6           0       -2.604951   -0.985352    0.477595
      2          6           0       -1.595468   -1.227646    1.396897
      3         16           0       -0.459746   -2.557842    1.073663
      4          6           0       -1.509976   -0.467226    2.564163
      5          6           0        1.043777   -0.455726    0.021717
      6          6           0        1.038330   -1.682104    0.668307
      7          6           0       -3.557585    0.001751    0.697168
      8          6           0       -2.447111    0.539154    2.764444
      9          1           0       -0.596318    0.142670    4.605045
     10          6           0        2.238728    0.147647   -0.319798
     11          6           0        2.246539   -2.297832    0.961919
     12          6           0        3.442101   -1.694718    0.621166
     13          6           0        3.453096   -0.462920   -0.023837
     14          1           0        2.234263    1.106243   -0.827797
     15          1           0        2.253931   -3.248348    1.486346
     16          1           0        4.381679   -2.178238    0.866461
     17          6           0       -3.461673    0.764082    1.856276
     18          1           0       -2.646669   -1.585519   -0.424718
     19          1           0        0.106936    0.032641   -0.224382
     20          1           0       -2.404245    1.146243    3.663282
     21          1           0       -4.192893    1.542008    2.047877
     22         16           0       -0.233558   -0.817463    3.737465
     23          7           0        4.673686    0.159547   -0.368747
     24          6           0        5.732508   -0.612661   -0.896564
     25          6           0        7.045695   -0.377960   -0.499452
     26          6           0        5.475865   -1.622329   -1.819567
     27          6           0        8.078745   -1.133154   -1.024558
     28          6           0        6.512871   -2.384632   -2.326214
     29          6           0        7.820306   -2.143178   -1.936900
     30          1           0        7.251646    0.403669    0.224060
     31          1           0        4.454830   -1.807304   -2.136118
     32          1           0        9.097402   -0.936530   -0.704866
     33          1           0        6.295127   -3.169013   -3.044416
     34          1           0        8.632202   -2.738403   -2.341339
     35          6           0        4.837054    1.548147   -0.168533
     36          6           0        5.516065    2.321618   -1.105787
     37          6           0        4.319017    2.163542    0.967486
     38          6           0        5.679987    3.679833   -0.902534
     39          6           0        4.472338    3.525567    1.154010
     40          6           0        5.156657    4.292005    0.224805
     41          1           0        5.917204    1.848815   -1.995947
     42          1           0        3.791670    1.566068    1.703651
     43          1           0        6.213214    4.268058   -1.642948
     44          1           0        4.061647    3.989730    2.045325
     45          1           0        5.281223    5.358830    0.377899
     46          7           0       -4.591369    0.225236   -0.235572
     47          6           0       -4.996809    1.544618   -0.539366
     48          6           0       -6.345932    1.849462   -0.693639
     49          6           0       -4.053605    2.557013   -0.688173
     50          6           0       -6.738551    3.140118   -0.998819
     51          6           0       -4.455920    3.848924   -0.975713
     52          6           0       -5.798707    4.148587   -1.137139
     53          1           0       -7.085839    1.064984   -0.575406
     54          1           0       -2.999778    2.324624   -0.576668
     55          1           0       -7.794748    3.361033   -1.117399
     56          1           0       -3.707423    4.627077   -1.088273
     57          1           0       -6.110711    5.161215   -1.369943
     58          6           0       -5.228462   -0.872905   -0.859345
     59          6           0       -5.548183   -0.824769   -2.212595
     60          6           0       -5.541916   -2.014931   -0.129127
     61          6           0       -6.178047   -1.897088   -2.818017
     62          6           0       -6.155123   -3.090236   -0.746513
     63          6           0       -6.481192   -3.037227   -2.091754
     64          1           0       -5.300925    0.061617   -2.787177
     65          1           0       -5.299559   -2.056134    0.927579
     66          1           0       -6.421719   -1.844307   -3.874525
     67          1           0       -6.390696   -3.975287   -0.163884
     68          1           0       -6.967632   -3.879890   -2.571608
 ---------------------------------------------------------------------

 SCF Done:  E(RLC-wHPBE) =  -2293.48669331     A.U. after   16 cycles

 The electronic state is 1-A.
 Alpha  occ. eigenvalues --  -88.24164 -88.23840 -14.16849 -14.16272 -10.08311
 Alpha  occ. eigenvalues --  -10.08222 -10.08016 -10.07880 -10.07656 -10.07527
 Alpha  occ. eigenvalues --  -10.07508 -10.07472 -10.06585 -10.04959 -10.04513
 Alpha  occ. eigenvalues --  -10.04509 -10.03904 -10.03878 -10.03778 -10.03734
 Alpha  occ. eigenvalues --  -10.03730 -10.03725 -10.03638 -10.03572 -10.03482
 Alpha  occ. eigenvalues --  -10.03463 -10.03448 -10.03444 -10.03443 -10.03426
 Alpha  occ. eigenvalues --  -10.03422 -10.03417 -10.03382 -10.03239 -10.03110
 Alpha  occ. eigenvalues --  -10.03101 -10.03094 -10.03089 -10.02940 -10.02918
 Alpha  occ. eigenvalues --   -7.83514  -7.83110  -5.85623  -5.85242  -5.85121
 Alpha  occ. eigenvalues --   -5.84731  -5.84347  -5.83924  -1.05090  -1.04498
 Alpha  occ. eigenvalues --   -0.96732  -0.94795  -0.94538  -0.94117  -0.93130
 Alpha  occ. eigenvalues --   -0.92436  -0.88713  -0.87725  -0.84939  -0.84421
 Alpha  occ. eigenvalues --   -0.84233  -0.83658  -0.83132  -0.83101  -0.82894
 Alpha  occ. eigenvalues --   -0.82714  -0.81943  -0.80609  -0.78325  -0.76871
 Alpha  occ. eigenvalues --   -0.72139  -0.71589  -0.71364  -0.70835  -0.69839
 Alpha  occ. eigenvalues --   -0.69441  -0.69092  -0.68678  -0.68528  -0.67793
 Alpha  occ. eigenvalues --   -0.65933  -0.65261  -0.63102  -0.62848  -0.62605
 Alpha  occ. eigenvalues --   -0.62072  -0.59168  -0.58506  -0.58138  -0.56772
 Alpha  occ. eigenvalues --   -0.56598  -0.56077  -0.55830  -0.55387  -0.54623
 Alpha  occ. eigenvalues --   -0.53991  -0.53723  -0.53539  -0.52739  -0.52558
 Alpha  occ. eigenvalues --   -0.52284  -0.51913  -0.51689  -0.51600  -0.51129
 Alpha  occ. eigenvalues --   -0.50910  -0.50775  -0.50627  -0.50378  -0.49621
 Alpha  occ. eigenvalues --   -0.48976  -0.47861  -0.47850  -0.47403  -0.47231
 Alpha  occ. eigenvalues --   -0.46996  -0.46736  -0.45038  -0.44799  -0.44333
 Alpha  occ. eigenvalues --   -0.44020  -0.43858  -0.43555  -0.42992  -0.42904
 Alpha  occ. eigenvalues --   -0.42464  -0.42334  -0.42087  -0.41805  -0.41174
 Alpha  occ. eigenvalues --   -0.39893  -0.38308  -0.36923  -0.35546  -0.35319
 Alpha  occ. eigenvalues --   -0.35026  -0.34897  -0.34386  -0.34182  -0.33767
 Alpha  occ. eigenvalues --   -0.33764  -0.31762  -0.30859  -0.26351  -0.25856
 Alpha virt. eigenvalues --    0.02550   0.03296   0.03886   0.04068   0.04167
 Alpha virt. eigenvalues --    0.04466   0.05403   0.06275   0.06484   0.06675
 Alpha virt. eigenvalues --    0.07981   0.08443   0.09272   0.11024   0.11351

 Mulliken charges:
               1
     1  C   -0.060959
     2  C   -0.272280
     3  S    0.076092
     4  C   -0.025465
     5  C    0.009970
     6  C   -0.210204
     7  C   -0.035935
     8  C   -0.035762
     9  H    0.088336
    10  C   -0.122508
    11  C   -0.112476
    12  C   -0.101866
    13  C   -0.075198
    14  H    0.154221
    15  H    0.130902
    16  H    0.155506
    17  C   -0.150217
    18  H    0.164772
    19  H    0.153129
    20  H    0.119625
    21  H    0.162640
    22  S   -0.021469
    23  N   -0.031849
    24  C   -0.052515
    25  C   -0.124865
    26  C   -0.120069
    27  C   -0.117341
    28  C   -0.117413
    29  C   -0.115450
    30  H    0.161934
    31  H    0.160385
    32  H    0.113496
    33  H    0.114065
    34  H    0.112569
    35  C   -0.051700
    36  C   -0.129171
    37  C   -0.115709
    38  C   -0.117203
    39  C   -0.119279
    40  C   -0.115951
    41  H    0.162219
    42  H    0.165084
    43  H    0.113317
    44  H    0.112560
    45  H    0.111892
    46  N   -0.031399
    47  C   -0.081754
    48  C   -0.111792
    49  C   -0.107828
    50  C   -0.121549
    51  C   -0.124948
    52  C   -0.108767
    53  H    0.162297
    54  H    0.168348
    55  H    0.115170
    56  H    0.114266
    57  H    0.114178
    58  C   -0.060750
    59  C   -0.119704
    60  C   -0.114159
    61  C   -0.115481
    62  C   -0.115897
    63  C   -0.114063
    64  H    0.160150
    65  H    0.158873
    66  H    0.115032
    67  H    0.115640
    68  H    0.114276
 Sum of Mulliken charges =  -0.00000

 Dipole moment (field-independent basis, Debye):
    X=             -0.9817    Y=              2.1078    Z=             -0.1364  Tot=              2.3292
 Quadrupole moment (field-independent basis, Debye-Ang):
   XX=           -227.5380   YY=           -234.9716   ZZ=           -238.0843
   XY=             -1.8718   XZ=             -0.3447   YZ=              7.2481

 Normal termination of Gaussian 16 at Wed Jan 27 23:58:40 2021.
