 Gaussian 16, Revision A.03,
 Gaussian 16:  EM64L-G16RevA.03 25-Dec-2016

 ----------------------------------------------------------------------
 #P LC-wHPBE/TZVP iop(3/107=0227800000, 3/108=0227800000) scf=(conver=6
 ,fermi,ndamp=35,noincfock,novaracc,vshift=500,xqc)
 ----------------------------------------------------------------------

 -------------
 H28 C36 S2 N2
 -------------
 Symbolic Z-matrix:
 Charge =  0 Multiplicity = 1

                         Standard orientation:
 ---------------------------------------------------------------------
 Center     Atomic      Atomic             Coordinates (Angstroms)
 Number     Number       Type             X           Y           Z
 ---------------------------------------------------------------------
      1          6           0       -2.604951   -0.985352    0.477595
      2          6           0       -1.595468   -1.227646    1.396897
      3         16           0       -0.459746   -2.557842    1.073663
      4          6           0       -1.509976   -0.467226    2.564163
      5          6           0        1.043777   -0.455726    0.021717
      6          6           0        1.038330   -1.682104    0.668307
      7          6           0       -3.557585    0.001751    0.697168
      8          6           0       -2.447111    0.539154    2.764444
      9          1           0       -0.596318    0.142670    4.605045
     10          6           0        2.238728    0.147647   -0.319798
     11          6           0        2.246539   -2.297832    0.961919
     12          6           0        3.442101   -1.694718    0.621166
     13          6           0        3.453096   -0.462920   -0.023837
     14          1           0        2.234263    1.106243   -0.827797
     15          1           0        2.253931   -3.248348    1.486346
     16          1           0        4.381679   -2.178238    0.866461
     17          6           0       -3.461673    0.764082    1.856276
     18          1           0       -2.646669   -1.585519   -0.424718
     19          1           0        0.106936    0.032641   -0.224382
     20          1           0       -2.404245    1.146243    3.663282
     21          1           0       -4.192893    1.542008    2.047877
     22         16           0       -0.233558   -0.817463    3.737465
     23          7           0        4.673686    0.159547   -0.368747
     24          6           0        5.732508   -0.612661   -0.896564
     25          6           0        7.045695   -0.377960   -0.499452
     26          6           0        5.475865   -1.622329   -1.819567
     27          6           0        8.078745   -1.133154   -1.024558
     28          6           0        6.512871   -2.384632   -2.326214
     29          6           0        7.820306   -2.143178   -1.936900
     30          1           0        7.251646    0.403669    0.224060
     31          1           0        4.454830   -1.807304   -2.136118
     32          1           0        9.097402   -0.936530   -0.704866
     33          1           0        6.295127   -3.169013   -3.044416
     34          1           0        8.632202   -2.738403   -2.341339
     35          6           0        4.837054    1.548147   -0.168533
     36          6           0        5.516065    2.321618   -1.105787
     37          6           0        4.319017    2.163542    0.967486
     38          6           0        5.679987    3.679833   -0.902534
     39          6           0        4.472338    3.525567    1.154010
     40          6           0        5.156657    4.292005    0.224805
     41          1           0        5.917204    1.848815   -1.995947
     42          1           0        3.791670    1.566068    1.703651
     43          1           0        6.213214    4.268058   -1.642948
     44          1           0        4.061647    3.989730    2.045325
     45          1           0        5.281223    5.358830    0.377899
     46          7           0       -4.591369    0.225236   -0.235572
     47          6           0       -4.996809    1.544618   -0.539366
     48          6           0       -6.345932    1.849462   -0.693639
     49          6           0       -4.053605    2.557013   -0.688173
     50          6           0       -6.738551    3.140118   -0.998819
     51          6           0       -4.455920    3.848924   -0.975713
     52          6           0       -5.798707    4.148587   -1.137139
     53          1           0       -7.085839    1.064984   -0.575406
     54          1           0       -2.999778    2.324624   -0.576668
     55          1           0       -7.794748    3.361033   -1.117399
     56          1           0       -3.707423    4.627077   -1.088273
     57          1           0       -6.110711    5.161215   -1.369943
     58          6           0       -5.228462   -0.872905   -0.859345
     59          6           0       -5.548183   -0.824769   -2.212595
     60          6           0       -5.541916   -2.014931   -0.129127
     61          6           0       -6.178047   -1.897088   -2.818017
     62          6           0       -6.155123   -3.090236   -0.746513
     63          6           0       -6.481192   -3.037227   -2.091754
     64          1           0       -5.300925    0.061617   -2.787177
     65          1           0       -5.299559   -2.056134    0.927579
     66          1           0       -6.421719   -1.844307   -3.874525
     67          1           0       -6.390696   -3.975287   -0.163884
     68          1           0       -6.967632   -3.879890   -2.571608
 ---------------------------------------------------------------------

 SCF Done:  E(RLC-wHPBE) =  -2293.41987915     A.U. after   16 cycles

 The electronic state is 1-A.
 Alpha  occ. eigenvalues --  -88.22292 -88.21953 -14.15030 -14.14460 -10.06310
 Alpha  occ. eigenvalues --  -10.06226 -10.06026 -10.05895 -10.05665 -10.05541
 Alpha  occ. eigenvalues --  -10.05523 -10.05481 -10.04605 -10.02985 -10.02540
 Alpha  occ. eigenvalues --  -10.02538 -10.01940 -10.01914 -10.01814 -10.01775
 Alpha  occ. eigenvalues --  -10.01765 -10.01763 -10.01687 -10.01622 -10.01535
 Alpha  occ. eigenvalues --  -10.01517 -10.01494 -10.01487 -10.01483 -10.01474
 Alpha  occ. eigenvalues --  -10.01466 -10.01457 -10.01427 -10.01288 -10.01164
 Alpha  occ. eigenvalues --  -10.01155 -10.01149 -10.01144 -10.00989 -10.00968
 Alpha  occ. eigenvalues --   -7.81594  -7.81175  -5.83760  -5.83362  -5.83266
 Alpha  occ. eigenvalues --   -5.82861  -5.82502  -5.82063  -1.03070  -1.02485
 Alpha  occ. eigenvalues --   -0.94652  -0.92740  -0.92486  -0.92068  -0.91104
 Alpha  occ. eigenvalues --   -0.90420  -0.86745  -0.85779  -0.83027  -0.82511
 Alpha  occ. eigenvalues --   -0.82334  -0.81748  -0.81231  -0.81198  -0.80994
 Alpha  occ. eigenvalues --   -0.80816  -0.80091  -0.78771  -0.76540  -0.75107
 Alpha  occ. eigenvalues --   -0.70459  -0.69912  -0.69704  -0.69174  -0.68168
 Alpha  occ. eigenvalues --   -0.67770  -0.67435  -0.67028  -0.66883  -0.66173
 Alpha  occ. eigenvalues --   -0.64343  -0.63682  -0.61573  -0.61332  -0.61080
 Alpha  occ. eigenvalues --   -0.60580  -0.57707  -0.57041  -0.56686  -0.55347
 Alpha  occ. eigenvalues --   -0.55186  -0.54680  -0.54398  -0.54019  -0.53224
 Alpha  occ. eigenvalues --   -0.52600  -0.52345  -0.52155  -0.51373  -0.51184
 Alpha  occ. eigenvalues --   -0.50937  -0.50578  -0.50352  -0.50267  -0.49779
 Alpha  occ. eigenvalues --   -0.49565  -0.49437  -0.49282  -0.49043  -0.48322
 Alpha  occ. eigenvalues --   -0.47648  -0.46560  -0.46477  -0.46036  -0.45863
 Alpha  occ. eigenvalues --   -0.45634  -0.45493  -0.43846  -0.43598  -0.43137
 Alpha  occ. eigenvalues --   -0.42820  -0.42663  -0.42353  -0.41827  -0.41767
 Alpha  occ. eigenvalues --   -0.41307  -0.41181  -0.40929  -0.40676  -0.40051
 Alpha  occ. eigenvalues --   -0.38781  -0.37272  -0.35936  -0.34676  -0.34459
 Alpha  occ. eigenvalues --   -0.34163  -0.34039  -0.33537  -0.33332  -0.32923
 Alpha  occ. eigenvalues --   -0.32919  -0.30902  -0.29985  -0.25642  -0.25150
 Alpha virt. eigenvalues --    0.01998   0.02744   0.03314   0.03487   0.03593
 Alpha virt. eigenvalues --    0.03884   0.04777   0.05631   0.05836   0.06029
 Alpha virt. eigenvalues --    0.07255   0.07788   0.08607   0.10451   0.10640

 Mulliken charges:
               1
     1  C   -0.058648
     2  C   -0.266580
     3  S    0.071026
     4  C   -0.019394
     5  C    0.014264
     6  C   -0.205008
     7  C   -0.033156
     8  C   -0.033950
     9  H    0.088693
    10  C   -0.120372
    11  C   -0.109851
    12  C   -0.097994
    13  C   -0.072065
    14  H    0.147625
    15  H    0.125258
    16  H    0.149128
    17  C   -0.146539
    18  H    0.157010
    19  H    0.148757
    20  H    0.113894
    21  H    0.156173
    22  S   -0.025147
    23  N   -0.019755
    24  C   -0.052338
    25  C   -0.120143
    26  C   -0.115240
    27  C   -0.113917
    28  C   -0.113987
    29  C   -0.108766
    30  H    0.155863
    31  H    0.154257
    32  H    0.108442
    33  H    0.109006
    34  H    0.107431
    35  C   -0.051546
    36  C   -0.124513
    37  C   -0.110703
    38  C   -0.113760
    39  C   -0.115905
    40  C   -0.109223
    41  H    0.156126
    42  H    0.158911
    43  H    0.108260
    44  H    0.107481
    45  H    0.106743
    46  N   -0.019289
    47  C   -0.082085
    48  C   -0.106964
    49  C   -0.102753
    50  C   -0.118138
    51  C   -0.121753
    52  C   -0.101946
    53  H    0.156184
    54  H    0.162702
    55  H    0.110116
    56  H    0.109169
    57  H    0.109050
    58  C   -0.060629
    59  C   -0.115015
    60  C   -0.109201
    61  C   -0.111978
    62  C   -0.112508
    63  C   -0.107450
    64  H    0.154092
    65  H    0.152785
    66  H    0.110000
    67  H    0.110594
    68  H    0.109166
 Sum of Mulliken charges =  -0.00000

 Dipole moment (field-independent basis, Debye):
    X=             -0.9758    Y=              2.0733    Z=             -0.1166  Tot=              2.2944
 Quadrupole moment (field-independent basis, Debye-Ang):
   XX=           -228.1274   YY=           -235.3870   ZZ=           -238.3496
   XY=             -1.8429   XZ=             -0.3269   YZ=              7.1424

 Normal termination of Gaussian 16 at Thu Jan 28 12:42:40 2021.
