 Gaussian 16, Revision A.03,
 Gaussian 16:  EM64L-G16RevA.03 25-Dec-2016

 ----------------------------------------------------------------------
 #P LC-wHPBE/TZVP iop(3/107=0221900000, 3/108=0221900000) scf=(conver=6
 ,fermi,ndamp=35,noincfock,novaracc,vshift=500,xqc)
 ----------------------------------------------------------------------

 -------------
 H21 C19 S2 N2
 -------------
 Symbolic Z-matrix:
 Charge =  1 Multiplicity = 1

                         Standard orientation:
 ---------------------------------------------------------------------
 Center     Atomic      Atomic             Coordinates (Angstroms)
 Number     Number       Type             X           Y           Z
 ---------------------------------------------------------------------
      1          6           0        5.141333    0.341453   -1.428653
      2          6           0        4.246330    0.793113   -0.457920
      3         16           0        3.527427    2.438238   -0.612926
      4          6           0        3.852580   -0.085202    0.570411
      5          6           0        0.863708   -0.787434    0.770822
      6          6           0        1.152588   -1.949541    0.292605
      7          6           0        5.641454   -0.963707   -1.380320
      8          6           0        4.337968   -1.397272    0.611701
      9          1           0        2.805747   -0.536686    2.620663
     10          6           0       -0.327590   -0.104924    0.757243
     11          6           0        0.161049   -2.709273   -0.336618
     12          6           0       -1.110551   -2.125038   -0.416532
     13          6           0       -1.366563   -0.836811    0.116144
     14          1           0       -0.506361    0.876389    1.203135
     15          1           0        0.333628   -3.701573   -0.760587
     16          1           0       -1.915541   -2.656529   -0.930176
     17          6           0        5.242141   -1.827604   -0.363151
     18          1           0        5.450891    1.025420   -2.219360
     19          1           0        4.159480    2.990100    0.460876
     20          1           0        6.347910   -1.298886   -2.140548
     21          1           0        4.022912   -2.077842    1.402557
     22          1           0        5.625918   -2.847650   -0.323690
     23         16           0        2.641644    0.489998    1.741439
     24          6           0       -2.680648   -0.257498    0.003764
     25          6           0       -4.054270   -0.413992   -0.132503
     26          6           0       -3.489875    0.870167   -0.052158
     27          7           0       -5.099740   -1.211802   -0.243141
     28          7           0       -3.607387    2.185094   -0.049886
     29          6           0       -4.958870   -2.662960   -0.086881
     30          1           0       -5.249390   -3.175063   -1.015650
     31          1           0       -3.921906   -2.911213    0.159186
     32          1           0       -5.607057   -3.011636    0.730112
     33          6           0       -6.456302   -0.708508   -0.463149
     34          1           0       -6.932296   -1.289768   -1.265044
     35          1           0       -7.062340   -0.804638    0.450448
     36          1           0       -6.424137    0.340187   -0.774131
     37          6           0       -2.422516    3.047015   -0.104701
     38          1           0       -2.374233    3.683098    0.791036
     39          1           0       -1.518165    2.434104   -0.168534
     40          1           0       -2.472812    3.689712   -0.995626
     41          6           0       -4.905946    2.859820   -0.071613
     42          1           0       -4.903422    3.671788    0.668659
     43          1           0       -5.109136    3.288120   -1.064906
     44          1           0       -5.701050    2.156915    0.195603
 ---------------------------------------------------------------------

 SCF Done:  E(RLC-wHPBE) =  -1641.37667051     A.U. after   16 cycles

 The electronic state is 1-A.
 Alpha  occ. eigenvalues --  -88.34721 -88.30010 -14.30487 -14.30480 -10.23326
 Alpha  occ. eigenvalues --  -10.23293 -10.19623 -10.17630 -10.17606 -10.17137
 Alpha  occ. eigenvalues --  -10.17098 -10.15333 -10.14997 -10.14444 -10.14292
 Alpha  occ. eigenvalues --  -10.13221 -10.12909 -10.12557 -10.11192 -10.10487
 Alpha  occ. eigenvalues --  -10.10277 -10.10059 -10.08874  -7.93796  -7.89257
 Alpha  occ. eigenvalues --   -5.95849  -5.95410  -5.94975  -5.91423  -5.90985
 Alpha  occ. eigenvalues --   -5.90152  -1.17858  -1.15325  -1.09765  -1.02521
 Alpha  occ. eigenvalues --   -1.01940  -0.95219  -0.93063  -0.92821  -0.92226
 Alpha  occ. eigenvalues --   -0.92098  -0.90880  -0.90698  -0.89335  -0.87028
 Alpha  occ. eigenvalues --   -0.84605  -0.80019  -0.77126  -0.76174  -0.74768
 Alpha  occ. eigenvalues --   -0.74468  -0.73625  -0.71676  -0.69423  -0.69071
 Alpha  occ. eigenvalues --   -0.68537  -0.67421  -0.66740  -0.64182  -0.63255
 Alpha  occ. eigenvalues --   -0.62894  -0.61999  -0.61876  -0.61248  -0.60986
 Alpha  occ. eigenvalues --   -0.60212  -0.60102  -0.59949  -0.59401  -0.59155
 Alpha  occ. eigenvalues --   -0.58181  -0.57840  -0.57780  -0.56921  -0.55638
 Alpha  occ. eigenvalues --   -0.55411  -0.54718  -0.54226  -0.51968  -0.50320
 Alpha  occ. eigenvalues --   -0.50013  -0.49359  -0.48691  -0.46189  -0.43766
 Alpha  occ. eigenvalues --   -0.42664  -0.41403  -0.40400  -0.39850  -0.36684
 Alpha virt. eigenvalues --   -0.10801  -0.09279  -0.05992  -0.04646  -0.04416
 Alpha virt. eigenvalues --   -0.04121  -0.03230  -0.02779  -0.00474  -0.00183
 Alpha virt. eigenvalues --    0.00336   0.00834   0.01028   0.02202   0.02487

 Mulliken charges:
               1
     1  C   -0.054732
     2  C   -0.239365
     3  S   -0.077616
     4  C    0.014564
     5  C   -0.189281
     6  C    0.117652
     7  C   -0.071553
     8  C    0.018389
     9  H    0.140060
    10  C   -0.116835
    11  C   -0.263233
    12  C   -0.047694
    13  C    0.071815
    14  H    0.149899
    15  H    0.131290
    16  H    0.143833
    17  C   -0.142221
    18  H    0.147126
    19  H    0.123224
    20  H    0.136562
    21  H    0.135490
    22  H    0.133346
    23  S    0.116214
    24  C   -0.430732
    25  C    0.048956
    26  C    0.036289
    27  N    0.007068
    28  N    0.004997
    29  C   -0.238257
    30  H    0.167106
    31  H    0.153526
    32  H    0.162384
    33  C   -0.239119
    34  H    0.164422
    35  H    0.172220
    36  H    0.137330
    37  C   -0.240326
    38  H    0.165473
    39  H    0.154597
    40  H    0.163224
    41  C   -0.241448
    42  H    0.163766
    43  H    0.172740
    44  H    0.138850
 Sum of Mulliken charges =   1.00000

 Dipole moment (field-independent basis, Debye):
    X=            -12.6283    Y=              1.1736    Z=              0.5209  Tot=             12.6934
 Quadrupole moment (field-independent basis, Debye-Ang):
   XX=            -28.2261   YY=           -114.5428   ZZ=           -141.1983
   XY=             -6.9607   XZ=              4.8457   YZ=              3.2905

 Normal termination of Gaussian 16 at Tue Jan 26 14:45:08 2021.
