 Gaussian 16, Revision A.03,
 Gaussian 16:  EM64L-G16RevA.03 25-Dec-2016

 ----------------------------------------------------------------------
 #P LC-wHPBE/TZVP iop(3/107=0171200000, 3/108=0171200000) scf=(conver=6
 ,fermi,ndamp=35,noincfock,novaracc,vshift=500,xqc)
 ----------------------------------------------------------------------

 -------------
 H21 C19 S2 N2
 -------------
 Symbolic Z-matrix:
 Charge =  1 Multiplicity = 1

                         Standard orientation:
 ---------------------------------------------------------------------
 Center     Atomic      Atomic             Coordinates (Angstroms)
 Number     Number       Type             X           Y           Z
 ---------------------------------------------------------------------
      1          6           0        5.141333    0.341453   -1.428653
      2          6           0        4.246330    0.793113   -0.457920
      3         16           0        3.527427    2.438238   -0.612926
      4          6           0        3.852580   -0.085202    0.570411
      5          6           0        0.863708   -0.787434    0.770822
      6          6           0        1.152588   -1.949541    0.292605
      7          6           0        5.641454   -0.963707   -1.380320
      8          6           0        4.337968   -1.397272    0.611701
      9          1           0        2.805747   -0.536686    2.620663
     10          6           0       -0.327590   -0.104924    0.757243
     11          6           0        0.161049   -2.709273   -0.336618
     12          6           0       -1.110551   -2.125038   -0.416532
     13          6           0       -1.366563   -0.836811    0.116144
     14          1           0       -0.506361    0.876389    1.203135
     15          1           0        0.333628   -3.701573   -0.760587
     16          1           0       -1.915541   -2.656529   -0.930176
     17          6           0        5.242141   -1.827604   -0.363151
     18          1           0        5.450891    1.025420   -2.219360
     19          1           0        4.159480    2.990100    0.460876
     20          1           0        6.347910   -1.298886   -2.140548
     21          1           0        4.022912   -2.077842    1.402557
     22          1           0        5.625918   -2.847650   -0.323690
     23         16           0        2.641644    0.489998    1.741439
     24          6           0       -2.680648   -0.257498    0.003764
     25          6           0       -4.054270   -0.413992   -0.132503
     26          6           0       -3.489875    0.870167   -0.052158
     27          7           0       -5.099740   -1.211802   -0.243141
     28          7           0       -3.607387    2.185094   -0.049886
     29          6           0       -4.958870   -2.662960   -0.086881
     30          1           0       -5.249390   -3.175063   -1.015650
     31          1           0       -3.921906   -2.911213    0.159186
     32          1           0       -5.607057   -3.011636    0.730112
     33          6           0       -6.456302   -0.708508   -0.463149
     34          1           0       -6.932296   -1.289768   -1.265044
     35          1           0       -7.062340   -0.804638    0.450448
     36          1           0       -6.424137    0.340187   -0.774131
     37          6           0       -2.422516    3.047015   -0.104701
     38          1           0       -2.374233    3.683098    0.791036
     39          1           0       -1.518165    2.434104   -0.168534
     40          1           0       -2.472812    3.689712   -0.995626
     41          6           0       -4.905946    2.859820   -0.071613
     42          1           0       -4.903422    3.671788    0.668659
     43          1           0       -5.109136    3.288120   -1.064906
     44          1           0       -5.701050    2.156915    0.195603
 ---------------------------------------------------------------------

 SCF Done:  E(RLC-wHPBE) =  -1641.31091576     A.U. after   17 cycles

 The electronic state is 1-A.
 Alpha  occ. eigenvalues --  -88.32022 -88.27308 -14.27673 -14.27667 -10.20146
 Alpha  occ. eigenvalues --  -10.20113 -10.16541 -10.14756 -10.14731 -10.14264
 Alpha  occ. eigenvalues --  -10.14222 -10.12414 -10.12137 -10.11458 -10.11442
 Alpha  occ. eigenvalues --  -10.10118 -10.09991 -10.09660 -10.08383 -10.07680
 Alpha  occ. eigenvalues --  -10.07466 -10.07254 -10.06046  -7.91036  -7.86503
 Alpha  occ. eigenvalues --   -5.93144  -5.92715  -5.92299  -5.88725  -5.88300
 Alpha  occ. eigenvalues --   -5.87475  -1.14733  -1.12313  -1.06725  -0.99444
 Alpha  occ. eigenvalues --   -0.98922  -0.92303  -0.90153  -0.89916  -0.89356
 Alpha  occ. eigenvalues --   -0.89204  -0.87972  -0.87850  -0.86571  -0.84266
 Alpha  occ. eigenvalues --   -0.81883  -0.77319  -0.74470  -0.73610  -0.72292
 Alpha  occ. eigenvalues --   -0.72013  -0.71138  -0.69149  -0.66843  -0.66676
 Alpha  occ. eigenvalues --   -0.66220  -0.64979  -0.64415  -0.61851  -0.61020
 Alpha  occ. eigenvalues --   -0.60569  -0.59755  -0.59531  -0.59020  -0.58809
 Alpha  occ. eigenvalues --   -0.58015  -0.57911  -0.57738  -0.57247  -0.57024
 Alpha  occ. eigenvalues --   -0.56072  -0.55721  -0.55640  -0.54789  -0.53492
 Alpha  occ. eigenvalues --   -0.53139  -0.52678  -0.52178  -0.49981  -0.48434
 Alpha  occ. eigenvalues --   -0.48026  -0.47484  -0.46838  -0.44461  -0.42123
 Alpha  occ. eigenvalues --   -0.41028  -0.39924  -0.39000  -0.38178  -0.35258
 Alpha virt. eigenvalues --   -0.11851  -0.10416  -0.07213  -0.05959  -0.05726
 Alpha virt. eigenvalues --   -0.05453  -0.04435  -0.04227  -0.01725  -0.01518
 Alpha virt. eigenvalues --   -0.01092  -0.00452  -0.00422   0.00822   0.01200

 Mulliken charges:
               1
     1  C   -0.049459
     2  C   -0.235871
     3  S   -0.080526
     4  C    0.022998
     5  C   -0.194015
     6  C    0.129591
     7  C   -0.065108
     8  C    0.020208
     9  H    0.140045
    10  C   -0.116575
    11  C   -0.265188
    12  C   -0.041071
    13  C    0.073855
    14  H    0.142991
    15  H    0.127562
    16  H    0.137837
    17  C   -0.137544
    18  H    0.141477
    19  H    0.123824
    20  H    0.131850
    21  H    0.129299
    22  H    0.128946
    23  S    0.114709
    24  C   -0.436728
    25  C    0.049784
    26  C    0.036660
    27  N    0.012215
    28  N    0.010233
    29  C   -0.244751
    30  H    0.167895
    31  H    0.155909
    32  H    0.163603
    33  C   -0.245692
    34  H    0.165625
    35  H    0.172972
    36  H    0.139895
    37  C   -0.247177
    38  H    0.166203
    39  H    0.157316
    40  H    0.164368
    41  C   -0.247939
    42  H    0.164959
    43  H    0.173451
    44  H    0.141364
 Sum of Mulliken charges =   1.00000

 Dipole moment (field-independent basis, Debye):
    X=            -12.4725    Y=              1.2033    Z=              0.5032  Tot=             12.5405
 Quadrupole moment (field-independent basis, Debye-Ang):
   XX=            -28.2428   YY=           -114.6691   ZZ=           -141.3602
   XY=             -6.8585   XZ=              4.8088   YZ=              3.2410

 Normal termination of Gaussian 16 at Tue Jan 26 20:08:50 2021.
