 Gaussian 16, Revision A.03,
 Gaussian 16:  EM64L-G16RevA.03 25-Dec-2016

 ----------------------------------------------------------------------
 #P LC-wHPBE/TZVP iop(3/107=0173000000, 3/108=0173000000) scf=(conver=6
 ,fermi,ndamp=35,noincfock,novaracc,vshift=500,xqc)
 ----------------------------------------------------------------------

 -------------
 H21 C19 S2 N2
 -------------
 Symbolic Z-matrix:
 Charge =  1 Multiplicity = 1

                         Standard orientation:
 ---------------------------------------------------------------------
 Center     Atomic      Atomic             Coordinates (Angstroms)
 Number     Number       Type             X           Y           Z
 ---------------------------------------------------------------------
      1          6           0        5.141333    0.341453   -1.428653
      2          6           0        4.246330    0.793113   -0.457920
      3         16           0        3.527427    2.438238   -0.612926
      4          6           0        3.852580   -0.085202    0.570411
      5          6           0        0.863708   -0.787434    0.770822
      6          6           0        1.152588   -1.949541    0.292605
      7          6           0        5.641454   -0.963707   -1.380320
      8          6           0        4.337968   -1.397272    0.611701
      9          1           0        2.805747   -0.536686    2.620663
     10          6           0       -0.327590   -0.104924    0.757243
     11          6           0        0.161049   -2.709273   -0.336618
     12          6           0       -1.110551   -2.125038   -0.416532
     13          6           0       -1.366563   -0.836811    0.116144
     14          1           0       -0.506361    0.876389    1.203135
     15          1           0        0.333628   -3.701573   -0.760587
     16          1           0       -1.915541   -2.656529   -0.930176
     17          6           0        5.242141   -1.827604   -0.363151
     18          1           0        5.450891    1.025420   -2.219360
     19          1           0        4.159480    2.990100    0.460876
     20          1           0        6.347910   -1.298886   -2.140548
     21          1           0        4.022912   -2.077842    1.402557
     22          1           0        5.625918   -2.847650   -0.323690
     23         16           0        2.641644    0.489998    1.741439
     24          6           0       -2.680648   -0.257498    0.003764
     25          6           0       -4.054270   -0.413992   -0.132503
     26          6           0       -3.489875    0.870167   -0.052158
     27          7           0       -5.099740   -1.211802   -0.243141
     28          7           0       -3.607387    2.185094   -0.049886
     29          6           0       -4.958870   -2.662960   -0.086881
     30          1           0       -5.249390   -3.175063   -1.015650
     31          1           0       -3.921906   -2.911213    0.159186
     32          1           0       -5.607057   -3.011636    0.730112
     33          6           0       -6.456302   -0.708508   -0.463149
     34          1           0       -6.932296   -1.289768   -1.265044
     35          1           0       -7.062340   -0.804638    0.450448
     36          1           0       -6.424137    0.340187   -0.774131
     37          6           0       -2.422516    3.047015   -0.104701
     38          1           0       -2.374233    3.683098    0.791036
     39          1           0       -1.518165    2.434104   -0.168534
     40          1           0       -2.472812    3.689712   -0.995626
     41          6           0       -4.905946    2.859820   -0.071613
     42          1           0       -4.903422    3.671788    0.668659
     43          1           0       -5.109136    3.288120   -1.064906
     44          1           0       -5.701050    2.156915    0.195603
 ---------------------------------------------------------------------

 SCF Done:  E(RLC-wHPBE) =  -1641.31330214     A.U. after   17 cycles

 The electronic state is 1-A.
 Alpha  occ. eigenvalues --  -88.32118 -88.27404 -14.27774 -14.27768 -10.20258
 Alpha  occ. eigenvalues --  -10.20225 -10.16650 -10.14858 -10.14833 -10.14366
 Alpha  occ. eigenvalues --  -10.14324 -10.12518 -10.12238 -10.11559 -10.11548
 Alpha  occ. eigenvalues --  -10.10228 -10.10094 -10.09762 -10.08482 -10.07779
 Alpha  occ. eigenvalues --  -10.07566 -10.07353 -10.06146  -7.91134  -7.86600
 Alpha  occ. eigenvalues --   -5.93240  -5.92811  -5.92394  -5.88821  -5.88395
 Alpha  occ. eigenvalues --   -5.87570  -1.14844  -1.12420  -1.06834  -0.99553
 Alpha  occ. eigenvalues --   -0.99029  -0.92407  -0.90257  -0.90021  -0.89460
 Alpha  occ. eigenvalues --   -0.89308  -0.88076  -0.87954  -0.86671  -0.84366
 Alpha  occ. eigenvalues --   -0.81981  -0.77417  -0.74567  -0.73704  -0.72384
 Alpha  occ. eigenvalues --   -0.72104  -0.71230  -0.69242  -0.66938  -0.66766
 Alpha  occ. eigenvalues --   -0.66307  -0.65070  -0.64502  -0.61938  -0.61104
 Alpha  occ. eigenvalues --   -0.60656  -0.59839  -0.59620  -0.59104  -0.58890
 Alpha  occ. eigenvalues --   -0.58098  -0.57993  -0.57821  -0.57328  -0.57105
 Alpha  occ. eigenvalues --   -0.56152  -0.55800  -0.55722  -0.54870  -0.53573
 Alpha  occ. eigenvalues --   -0.53224  -0.52756  -0.52256  -0.50057  -0.48506
 Alpha  occ. eigenvalues --   -0.48102  -0.47555  -0.46910  -0.44529  -0.42188
 Alpha  occ. eigenvalues --   -0.41093  -0.39983  -0.39055  -0.38243  -0.35314
 Alpha virt. eigenvalues --   -0.11808  -0.10369  -0.07163  -0.05905  -0.05672
 Alpha virt. eigenvalues --   -0.05399  -0.04385  -0.04168  -0.01671  -0.01465
 Alpha virt. eigenvalues --   -0.01034  -0.00398  -0.00364   0.00877   0.01252

 Mulliken charges:
               1
     1  C   -0.049658
     2  C   -0.235963
     3  S   -0.080421
     4  C    0.022678
     5  C   -0.193776
     6  C    0.129181
     7  C   -0.065275
     8  C    0.020235
     9  H    0.140044
    10  C   -0.116592
    11  C   -0.265116
    12  C   -0.041254
    13  C    0.073748
    14  H    0.143196
    15  H    0.127653
    16  H    0.138010
    17  C   -0.137696
    18  H    0.141635
    19  H    0.123797
    20  H    0.131971
    21  H    0.129472
    22  H    0.129053
    23  S    0.114772
    24  C   -0.436621
    25  C    0.049740
    26  C    0.036635
    27  N    0.012113
    28  N    0.010128
    29  C   -0.244463
    30  H    0.167844
    31  H    0.155812
    32  H    0.163540
    33  C   -0.245408
    34  H    0.165565
    35  H    0.172922
    36  H    0.139794
    37  C   -0.246878
    38  H    0.166154
    39  H    0.157210
    40  H    0.164308
    41  C   -0.247657
    42  H    0.164899
    43  H    0.173403
    44  H    0.141266
 Sum of Mulliken charges =   1.00000

 Dipole moment (field-independent basis, Debye):
    X=            -12.4781    Y=              1.2022    Z=              0.5039  Tot=             12.5460
 Quadrupole moment (field-independent basis, Debye-Ang):
   XX=            -28.2430   YY=           -114.6652   ZZ=           -141.3544
   XY=             -6.8624   XZ=              4.8105   YZ=              3.2427

 Normal termination of Gaussian 16 at Tue Jan 26 21:59:30 2021.
