 Gaussian 16, Revision A.03,
 Gaussian 16:  EM64L-G16RevA.03 25-Dec-2016

 ----------------------------------------------------------------------
 #P LC-wHPBE/TZVP iop(3/107=0156200000, 3/108=0156200000) scf=(conver=6
 ,fermi,ndamp=35,noincfock,novaracc,vshift=500,xqc)
 ----------------------------------------------------------------------

 -------------
 H21 C19 S2 N2
 -------------
 Symbolic Z-matrix:
 Charge =  2 Multiplicity = 2

                         Standard orientation:
 ---------------------------------------------------------------------
 Center     Atomic      Atomic             Coordinates (Angstroms)
 Number     Number       Type             X           Y           Z
 ---------------------------------------------------------------------
      1          6           0        5.141333    0.341453   -1.428653
      2          6           0        4.246330    0.793113   -0.457920
      3         16           0        3.527427    2.438238   -0.612926
      4          6           0        3.852580   -0.085202    0.570411
      5          6           0        0.863708   -0.787434    0.770822
      6          6           0        1.152588   -1.949541    0.292605
      7          6           0        5.641454   -0.963707   -1.380320
      8          6           0        4.337968   -1.397272    0.611701
      9          1           0        2.805747   -0.536686    2.620663
     10          6           0       -0.327590   -0.104924    0.757243
     11          6           0        0.161049   -2.709273   -0.336618
     12          6           0       -1.110551   -2.125038   -0.416532
     13          6           0       -1.366563   -0.836811    0.116144
     14          1           0       -0.506361    0.876389    1.203135
     15          1           0        0.333628   -3.701573   -0.760587
     16          1           0       -1.915541   -2.656529   -0.930176
     17          6           0        5.242141   -1.827604   -0.363151
     18          1           0        5.450891    1.025420   -2.219360
     19          1           0        4.159480    2.990100    0.460876
     20          1           0        6.347910   -1.298886   -2.140548
     21          1           0        4.022912   -2.077842    1.402557
     22          1           0        5.625918   -2.847650   -0.323690
     23         16           0        2.641644    0.489998    1.741439
     24          6           0       -2.680648   -0.257498    0.003764
     25          6           0       -4.054270   -0.413992   -0.132503
     26          6           0       -3.489875    0.870167   -0.052158
     27          7           0       -5.099740   -1.211802   -0.243141
     28          7           0       -3.607387    2.185094   -0.049886
     29          6           0       -4.958870   -2.662960   -0.086881
     30          1           0       -5.249390   -3.175063   -1.015650
     31          1           0       -3.921906   -2.911213    0.159186
     32          1           0       -5.607057   -3.011636    0.730112
     33          6           0       -6.456302   -0.708508   -0.463149
     34          1           0       -6.932296   -1.289768   -1.265044
     35          1           0       -7.062340   -0.804638    0.450448
     36          1           0       -6.424137    0.340187   -0.774131
     37          6           0       -2.422516    3.047015   -0.104701
     38          1           0       -2.374233    3.683098    0.791036
     39          1           0       -1.518165    2.434104   -0.168534
     40          1           0       -2.472812    3.689712   -0.995626
     41          6           0       -4.905946    2.859820   -0.071613
     42          1           0       -4.903422    3.671788    0.668659
     43          1           0       -5.109136    3.288120   -1.064906
     44          1           0       -5.701050    2.156915    0.195603
 ---------------------------------------------------------------------

 SCF Done:  E(ULC-wHPBE) =  -1640.93864762     A.U. after   33 cycles
 SCF Done:  E(ULC-wHPBE) =  -1640.93865730     a.u. after    2 cycles

 The electronic state is 2-A.
 Alpha  occ. eigenvalues --  -88.50086 -88.39200 -14.36758 -14.36571 -10.29577
 Alpha  occ. eigenvalues --  -10.29520 -10.27087 -10.25987 -10.25946 -10.25553
 Alpha  occ. eigenvalues --  -10.25519 -10.24905 -10.24434 -10.23986 -10.23368
 Alpha  occ. eigenvalues --  -10.22777 -10.22197 -10.22181 -10.21973 -10.21275
 Alpha  occ. eigenvalues --  -10.19859 -10.19735 -10.19673  -8.08758  -7.98343
 Alpha  occ. eigenvalues --   -6.10715  -6.10580  -6.10231  -6.00577  -6.00136
 Alpha  occ. eigenvalues --   -5.99368  -1.23645  -1.20916  -1.16037  -1.14092
 Alpha  occ. eigenvalues --   -1.12525  -1.06711  -1.03980  -1.02466  -1.02057
 Alpha  occ. eigenvalues --   -0.97687  -0.97520  -0.97160  -0.96356  -0.95166
 Alpha  occ. eigenvalues --   -0.94312  -0.91431  -0.88253  -0.86493  -0.83807
 Alpha  occ. eigenvalues --   -0.81880  -0.80733  -0.80282  -0.77417  -0.76748
 Alpha  occ. eigenvalues --   -0.76127  -0.75414  -0.74413  -0.74196  -0.73916
 Alpha  occ. eigenvalues --   -0.73073  -0.71899  -0.71339  -0.70474  -0.69366
 Alpha  occ. eigenvalues --   -0.68667  -0.68344  -0.67931  -0.67420  -0.67093
 Alpha  occ. eigenvalues --   -0.66923  -0.65966  -0.65844  -0.65495  -0.65320
 Alpha  occ. eigenvalues --   -0.65068  -0.63691  -0.63194  -0.62748  -0.61767
 Alpha  occ. eigenvalues --   -0.61221  -0.59403  -0.57768  -0.56632  -0.56399
 Alpha  occ. eigenvalues --   -0.56066  -0.53263  -0.52901  -0.50247  -0.49870
 Alpha virt. eigenvalues --   -0.28112  -0.25272  -0.21894  -0.20280  -0.19799
 Alpha virt. eigenvalues --   -0.18869  -0.15904  -0.15780  -0.14900  -0.13967
 Alpha virt. eigenvalues --   -0.12906  -0.10664  -0.10365  -0.09578  -0.08984

  Beta  occ. eigenvalues --  -88.49963 -88.39189 -14.36766 -14.36579 -10.29581
  Beta  occ. eigenvalues --  -10.29525 -10.27242 -10.25979 -10.25609 -10.25531
  Beta  occ. eigenvalues --  -10.24841 -10.24751 -10.24349 -10.24028 -10.23260
  Beta  occ. eigenvalues --  -10.22777 -10.22196 -10.22181 -10.21973 -10.21271
  Beta  occ. eigenvalues --  -10.19828 -10.19709 -10.19652  -8.08632  -7.98333
  Beta  occ. eigenvalues --   -6.10634  -6.10302  -6.10091  -6.00572  -6.00129
  Beta  occ. eigenvalues --   -5.99338  -1.23657  -1.20928  -1.16021  -1.13651
  Beta  occ. eigenvalues --   -1.12315  -1.06363  -1.03372  -1.02356  -1.01934
  Beta  occ. eigenvalues --   -0.97677  -0.97316  -0.97155  -0.96359  -0.95130
  Beta  occ. eigenvalues --   -0.94196  -0.90825  -0.88029  -0.86417  -0.83697
  Beta  occ. eigenvalues --   -0.81849  -0.80715  -0.80250  -0.77340  -0.76504
  Beta  occ. eigenvalues --   -0.75933  -0.75422  -0.74316  -0.74017  -0.73550
  Beta  occ. eigenvalues --   -0.73075  -0.71814  -0.70610  -0.70185  -0.69286
  Beta  occ. eigenvalues --   -0.68550  -0.68284  -0.67848  -0.67359  -0.66945
  Beta  occ. eigenvalues --   -0.66654  -0.65944  -0.65724  -0.65490  -0.65296
  Beta  occ. eigenvalues --   -0.64989  -0.63651  -0.63101  -0.62393  -0.61146
  Beta  occ. eigenvalues --   -0.61099  -0.59313  -0.57415  -0.56638  -0.56108
  Beta  occ. eigenvalues --   -0.53294  -0.52994  -0.50131  -0.49702
  Beta virt. eigenvalues --   -0.35678  -0.25696  -0.24769  -0.21951  -0.20035
  Beta virt. eigenvalues --   -0.19449  -0.18621  -0.15937  -0.15497  -0.14609
  Beta virt. eigenvalues --   -0.13939  -0.12824  -0.10612  -0.10256  -0.09494

 Mulliken charges and spin densities:
               1          2
     1  C   -0.023289  -0.027317
     2  C   -0.240415   0.058813
     3  S   -0.005511   0.022225
     4  C   -0.017750  -0.005102
     5  C   -0.225893  -0.163543
     6  C    0.293987   0.737450
     7  C   -0.037510   0.059988
     8  C    0.000034  -0.000104
     9  H    0.176305  -0.006525
    10  C   -0.088005   0.036674
    11  C   -0.211137  -0.008726
    12  C   -0.008871   0.054054
    13  C    0.041790  -0.049900
    14  H    0.189356   0.007002
    15  H    0.191581   0.024875
    16  H    0.181187   0.004512
    17  C   -0.124792   0.017366
    18  H    0.181593   0.000553
    19  H    0.147470   0.003043
    20  H    0.174108  -0.002809
    21  H    0.162148  -0.000301
    22  H    0.167451  -0.001319
    23  S    0.302329   0.236844
    24  C   -0.466357   0.014306
    25  C    0.070605  -0.002597
    26  C    0.052596  -0.001638
    27  N    0.029117  -0.003856
    28  N    0.025431  -0.003555
    29  C   -0.246353   0.000197
    30  H    0.188413  -0.000197
    31  H    0.138839   0.000116
    32  H    0.185934  -0.000179
    33  C   -0.250644   0.000143
    34  H    0.182840  -0.000171
    35  H    0.192333  -0.000184
    36  H    0.146081  -0.000005
    37  C   -0.247951   0.000216
    38  H    0.184634  -0.000159
    39  H    0.132283   0.000187
    40  H    0.185992  -0.000210
    41  C   -0.253104   0.000155
    42  H    0.180613  -0.000164
    43  H    0.192457  -0.000158
    44  H    0.150076   0.000001
 Sum of Mulliken charges =   2.00000   1.00000

 Dipole moment (field-independent basis, Debye):
    X=             -6.1903    Y=             -1.0926    Z=              1.4360  Tot=              6.4479
 Quadrupole moment (field-independent basis, Debye-Ang):
   XX=             42.4737   YY=            -89.8316   ZZ=           -129.8313
   XY=             -8.7593   XZ=              6.0133   YZ=              4.8958

 Normal termination of Gaussian 16 at Tue Jan 26 17:14:24 2021.
