 Gaussian 16, Revision A.03,
 Gaussian 16:  EM64L-G16RevA.03 25-Dec-2016

 ----------------------------------------------------------------------
 #P LC-wHPBE/TZVP iop(3/107=0181000000, 3/108=0181000000) scf=(conver=6
 ,fermi,ndamp=35,noincfock,novaracc,vshift=500,xqc)
 ----------------------------------------------------------------------

 -------------
 H21 C19 S2 N2
 -------------
 Symbolic Z-matrix:
 Charge =  2 Multiplicity = 2

                         Standard orientation:
 ---------------------------------------------------------------------
 Center     Atomic      Atomic             Coordinates (Angstroms)
 Number     Number       Type             X           Y           Z
 ---------------------------------------------------------------------
      1          6           0        5.141333    0.341453   -1.428653
      2          6           0        4.246330    0.793113   -0.457920
      3         16           0        3.527427    2.438238   -0.612926
      4          6           0        3.852580   -0.085202    0.570411
      5          6           0        0.863708   -0.787434    0.770822
      6          6           0        1.152588   -1.949541    0.292605
      7          6           0        5.641454   -0.963707   -1.380320
      8          6           0        4.337968   -1.397272    0.611701
      9          1           0        2.805747   -0.536686    2.620663
     10          6           0       -0.327590   -0.104924    0.757243
     11          6           0        0.161049   -2.709273   -0.336618
     12          6           0       -1.110551   -2.125038   -0.416532
     13          6           0       -1.366563   -0.836811    0.116144
     14          1           0       -0.506361    0.876389    1.203135
     15          1           0        0.333628   -3.701573   -0.760587
     16          1           0       -1.915541   -2.656529   -0.930176
     17          6           0        5.242141   -1.827604   -0.363151
     18          1           0        5.450891    1.025420   -2.219360
     19          1           0        4.159480    2.990100    0.460876
     20          1           0        6.347910   -1.298886   -2.140548
     21          1           0        4.022912   -2.077842    1.402557
     22          1           0        5.625918   -2.847650   -0.323690
     23         16           0        2.641644    0.489998    1.741439
     24          6           0       -2.680648   -0.257498    0.003764
     25          6           0       -4.054270   -0.413992   -0.132503
     26          6           0       -3.489875    0.870167   -0.052158
     27          7           0       -5.099740   -1.211802   -0.243141
     28          7           0       -3.607387    2.185094   -0.049886
     29          6           0       -4.958870   -2.662960   -0.086881
     30          1           0       -5.249390   -3.175063   -1.015650
     31          1           0       -3.921906   -2.911213    0.159186
     32          1           0       -5.607057   -3.011636    0.730112
     33          6           0       -6.456302   -0.708508   -0.463149
     34          1           0       -6.932296   -1.289768   -1.265044
     35          1           0       -7.062340   -0.804638    0.450448
     36          1           0       -6.424137    0.340187   -0.774131
     37          6           0       -2.422516    3.047015   -0.104701
     38          1           0       -2.374233    3.683098    0.791036
     39          1           0       -1.518165    2.434104   -0.168534
     40          1           0       -2.472812    3.689712   -0.995626
     41          6           0       -4.905946    2.859820   -0.071613
     42          1           0       -4.903422    3.671788    0.668659
     43          1           0       -5.109136    3.288120   -1.064906
     44          1           0       -5.701050    2.156915    0.195603
 ---------------------------------------------------------------------

 SCF Done:  E(ULC-wHPBE) =  -1640.97046985     A.U. after   33 cycles
 SCF Done:  E(ULC-wHPBE) =  -1640.97047645     a.u. after    2 cycles

 The electronic state is 2-A.
 Alpha  occ. eigenvalues --  -88.51679 -88.40312 -14.38167 -14.37984 -10.31160
 Alpha  occ. eigenvalues --  -10.31104 -10.28830 -10.27671 -10.27509 -10.27119
 Alpha  occ. eigenvalues --  -10.26847 -10.26480 -10.25685 -10.25543 -10.24929
 Alpha  occ. eigenvalues --  -10.24200 -10.23632 -10.23599 -10.23395 -10.22619
 Alpha  occ. eigenvalues --  -10.21089 -10.20987 -10.20921  -8.10357  -7.99481
 Alpha  occ. eigenvalues --   -6.12287  -6.12172  -6.11794  -6.01698  -6.01250
 Alpha  occ. eigenvalues --   -6.00464  -1.25201  -1.22416  -1.17582  -1.15759
 Alpha  occ. eigenvalues --   -1.13983  -1.08175  -1.05606  -1.03833  -1.03584
 Alpha  occ. eigenvalues --   -0.99140  -0.98862  -0.98607  -0.97786  -0.96584
 Alpha  occ. eigenvalues --   -0.95537  -0.92947  -0.89744  -0.87726  -0.85002
 Alpha  occ. eigenvalues --   -0.83294  -0.82039  -0.81582  -0.78583  -0.78087
 Alpha  occ. eigenvalues --   -0.77446  -0.76756  -0.75638  -0.75427  -0.75170
 Alpha  occ. eigenvalues --   -0.74351  -0.72991  -0.72641  -0.71673  -0.70712
 Alpha  occ. eigenvalues --   -0.69792  -0.69415  -0.69051  -0.68598  -0.68347
 Alpha  occ. eigenvalues --   -0.68052  -0.67132  -0.66989  -0.66657  -0.66457
 Alpha  occ. eigenvalues --   -0.66218  -0.64803  -0.64329  -0.63777  -0.62786
 Alpha  occ. eigenvalues --   -0.62159  -0.60254  -0.58861  -0.57723  -0.57583
 Alpha  occ. eigenvalues --   -0.57125  -0.54027  -0.53664  -0.50988  -0.50699
 Alpha virt. eigenvalues --   -0.27585  -0.24777  -0.21286  -0.19508  -0.18953
 Alpha virt. eigenvalues --   -0.18040  -0.15166  -0.15025  -0.14147  -0.13272
 Alpha virt. eigenvalues --   -0.11953  -0.09965  -0.09427  -0.08875  -0.08224

  Beta  occ. eigenvalues --  -88.51549 -88.40305 -14.38175 -14.37993 -10.31164
  Beta  occ. eigenvalues --  -10.31110 -10.28999 -10.27500 -10.27181 -10.26866
  Beta  occ. eigenvalues --  -10.26437 -10.26413 -10.25604 -10.25592 -10.24816
  Beta  occ. eigenvalues --  -10.24199 -10.23631 -10.23598 -10.23394 -10.22609
  Beta  occ. eigenvalues --  -10.21068 -10.20960 -10.20905  -8.10223  -7.99474
  Beta  occ. eigenvalues --   -6.12200  -6.11874  -6.11652  -6.01695  -6.01247
  Beta  occ. eigenvalues --   -6.00445  -1.25214  -1.22429  -1.17559  -1.15306
  Beta  occ. eigenvalues --   -1.13768  -1.07815  -1.04970  -1.03730  -1.03470
  Beta  occ. eigenvalues --   -0.99129  -0.98661  -0.98588  -0.97789  -0.96544
  Beta  occ. eigenvalues --   -0.95441  -0.92310  -0.89512  -0.87654  -0.84902
  Beta  occ. eigenvalues --   -0.83262  -0.82020  -0.81545  -0.78504  -0.77824
  Beta  occ. eigenvalues --   -0.77237  -0.76760  -0.75523  -0.75205  -0.74833
  Beta  occ. eigenvalues --   -0.74354  -0.72906  -0.71851  -0.71346  -0.70614
  Beta  occ. eigenvalues --   -0.69683  -0.69356  -0.68971  -0.68520  -0.68208
  Beta  occ. eigenvalues --   -0.67768  -0.67107  -0.66867  -0.66650  -0.66433
  Beta  occ. eigenvalues --   -0.66141  -0.64765  -0.64232  -0.63343  -0.62098
  Beta  occ. eigenvalues --   -0.62065  -0.60173  -0.58499  -0.57712  -0.57161
  Beta  occ. eigenvalues --   -0.54050  -0.53737  -0.50909  -0.50523
  Beta virt. eigenvalues --   -0.35128  -0.24943  -0.24241  -0.21355  -0.19254
  Beta virt. eigenvalues --   -0.18600  -0.17777  -0.15204  -0.14732  -0.13853
  Beta virt. eigenvalues --   -0.13242  -0.11881  -0.09922  -0.09319  -0.08787

 Mulliken charges and spin densities:
               1          2
     1  C   -0.026107  -0.028503
     2  C   -0.241100   0.056270
     3  S   -0.009763   0.013440
     4  C   -0.025322  -0.010510
     5  C   -0.225275  -0.177154
     6  C    0.294954   0.761605
     7  C   -0.040002   0.059509
     8  C   -0.000654   0.005554
     9  H    0.176985  -0.006888
    10  C   -0.087842   0.040116
    11  C   -0.209743  -0.013870
    12  C   -0.009815   0.058040
    13  C    0.040337  -0.054250
    14  H    0.192325   0.006733
    15  H    0.194033   0.025564
    16  H    0.183663   0.004165
    17  C   -0.128372   0.008784
    18  H    0.183140   0.000694
    19  H    0.145792   0.002935
    20  H    0.174972  -0.002769
    21  H    0.163447  -0.000626
    22  H    0.168010  -0.000907
    23  S    0.311892   0.249533
    24  C   -0.467026   0.015530
    25  C    0.070598  -0.002780
    26  C    0.052698  -0.001845
    27  N    0.028130  -0.004119
    28  N    0.024441  -0.003820
    29  C   -0.242420   0.000231
    30  H    0.187744  -0.000208
    31  H    0.137008   0.000102
    32  H    0.185110  -0.000193
    33  C   -0.247004   0.000162
    34  H    0.182007  -0.000179
    35  H    0.191619  -0.000193
    36  H    0.144755  -0.000005
    37  C   -0.243904   0.000258
    38  H    0.183986  -0.000173
    39  H    0.130602   0.000154
    40  H    0.185284  -0.000222
    41  C   -0.249482   0.000175
    42  H    0.179794  -0.000172
    43  H    0.191802  -0.000169
    44  H    0.148702  -0.000000
 Sum of Mulliken charges =   2.00000   1.00000

 Dipole moment (field-independent basis, Debye):
    X=             -6.4169    Y=             -1.2182    Z=              1.5404  Tot=              6.7107
 Quadrupole moment (field-independent basis, Debye-Ang):
   XX=             41.3589   YY=            -89.9003   ZZ=           -129.6941
   XY=             -8.9414   XZ=              6.3748   YZ=              4.9828

 Normal termination of Gaussian 16 at Tue Jan 26 19:57:14 2021.
