 Gaussian 16, Revision A.03,
 Gaussian 16:  EM64L-G16RevA.03 25-Dec-2016

 ----------------------------------------------------------------------
 #P LC-wHPBE/TZVP iop(3/107=0172100000, 3/108=0172100000) scf=(conver=6
 ,fermi,ndamp=35,noincfock,novaracc,vshift=500,xqc)
 ----------------------------------------------------------------------

 -------------
 H21 C19 S2 N2
 -------------
 Symbolic Z-matrix:
 Charge =  1 Multiplicity = 1

                         Standard orientation:
 ---------------------------------------------------------------------
 Center     Atomic      Atomic             Coordinates (Angstroms)
 Number     Number       Type             X           Y           Z
 ---------------------------------------------------------------------
      1          6           0        5.141333    0.341453   -1.428653
      2          6           0        4.246330    0.793113   -0.457920
      3         16           0        3.527427    2.438238   -0.612926
      4          6           0        3.852580   -0.085202    0.570411
      5          6           0        0.863708   -0.787434    0.770822
      6          6           0        1.152588   -1.949541    0.292605
      7          6           0        5.641454   -0.963707   -1.380320
      8          6           0        4.337968   -1.397272    0.611701
      9          1           0        2.805747   -0.536686    2.620663
     10          6           0       -0.327590   -0.104924    0.757243
     11          6           0        0.161049   -2.709273   -0.336618
     12          6           0       -1.110551   -2.125038   -0.416532
     13          6           0       -1.366563   -0.836811    0.116144
     14          1           0       -0.506361    0.876389    1.203135
     15          1           0        0.333628   -3.701573   -0.760587
     16          1           0       -1.915541   -2.656529   -0.930176
     17          6           0        5.242141   -1.827604   -0.363151
     18          1           0        5.450891    1.025420   -2.219360
     19          1           0        4.159480    2.990100    0.460876
     20          1           0        6.347910   -1.298886   -2.140548
     21          1           0        4.022912   -2.077842    1.402557
     22          1           0        5.625918   -2.847650   -0.323690
     23         16           0        2.641644    0.489998    1.741439
     24          6           0       -2.680648   -0.257498    0.003764
     25          6           0       -4.054270   -0.413992   -0.132503
     26          6           0       -3.489875    0.870167   -0.052158
     27          7           0       -5.099740   -1.211802   -0.243141
     28          7           0       -3.607387    2.185094   -0.049886
     29          6           0       -4.958870   -2.662960   -0.086881
     30          1           0       -5.249390   -3.175063   -1.015650
     31          1           0       -3.921906   -2.911213    0.159186
     32          1           0       -5.607057   -3.011636    0.730112
     33          6           0       -6.456302   -0.708508   -0.463149
     34          1           0       -6.932296   -1.289768   -1.265044
     35          1           0       -7.062340   -0.804638    0.450448
     36          1           0       -6.424137    0.340187   -0.774131
     37          6           0       -2.422516    3.047015   -0.104701
     38          1           0       -2.374233    3.683098    0.791036
     39          1           0       -1.518165    2.434104   -0.168534
     40          1           0       -2.472812    3.689712   -0.995626
     41          6           0       -4.905946    2.859820   -0.071613
     42          1           0       -4.903422    3.671788    0.668659
     43          1           0       -5.109136    3.288120   -1.064906
     44          1           0       -5.701050    2.156915    0.195603
 ---------------------------------------------------------------------

 SCF Done:  E(RLC-wHPBE) =  -1641.31210904     A.U. after   17 cycles

 The electronic state is 1-A.
 Alpha  occ. eigenvalues --  -88.32070 -88.27356 -14.27723 -14.27718 -10.20202
 Alpha  occ. eigenvalues --  -10.20169 -10.16596 -10.14807 -10.14782 -10.14315
 Alpha  occ. eigenvalues --  -10.14273 -10.12466 -10.12187 -10.11508 -10.11495
 Alpha  occ. eigenvalues --  -10.10173 -10.10043 -10.09711 -10.08432 -10.07730
 Alpha  occ. eigenvalues --  -10.07516 -10.07303 -10.06096  -7.91085  -7.86551
 Alpha  occ. eigenvalues --   -5.93192  -5.92763  -5.92347  -5.88773  -5.88348
 Alpha  occ. eigenvalues --   -5.87522  -1.14788  -1.12366  -1.06780  -0.99498
 Alpha  occ. eigenvalues --   -0.98976  -0.92355  -0.90205  -0.89969  -0.89408
 Alpha  occ. eigenvalues --   -0.89256  -0.88024  -0.87902  -0.86621  -0.84316
 Alpha  occ. eigenvalues --   -0.81932  -0.77368  -0.74519  -0.73657  -0.72338
 Alpha  occ. eigenvalues --   -0.72059  -0.71184  -0.69195  -0.66891  -0.66721
 Alpha  occ. eigenvalues --   -0.66263  -0.65024  -0.64458  -0.61894  -0.61062
 Alpha  occ. eigenvalues --   -0.60613  -0.59797  -0.59575  -0.59062  -0.58850
 Alpha  occ. eigenvalues --   -0.58057  -0.57952  -0.57779  -0.57288  -0.57065
 Alpha  occ. eigenvalues --   -0.56112  -0.55760  -0.55681  -0.54830  -0.53533
 Alpha  occ. eigenvalues --   -0.53182  -0.52717  -0.52217  -0.50019  -0.48470
 Alpha  occ. eigenvalues --   -0.48064  -0.47519  -0.46874  -0.44495  -0.42156
 Alpha  occ. eigenvalues --   -0.41061  -0.39954  -0.39028  -0.38210  -0.35286
 Alpha virt. eigenvalues --   -0.11829  -0.10393  -0.07188  -0.05932  -0.05699
 Alpha virt. eigenvalues --   -0.05426  -0.04410  -0.04197  -0.01698  -0.01491
 Alpha virt. eigenvalues --   -0.01063  -0.00425  -0.00393   0.00850   0.01226

 Mulliken charges:
               1
     1  C   -0.049558
     2  C   -0.235917
     3  S   -0.080473
     4  C    0.022838
     5  C   -0.193895
     6  C    0.129386
     7  C   -0.065191
     8  C    0.020223
     9  H    0.140044
    10  C   -0.116584
    11  C   -0.265152
    12  C   -0.041162
    13  C    0.073801
    14  H    0.143093
    15  H    0.127607
    16  H    0.137923
    17  C   -0.137620
    18  H    0.141556
    19  H    0.123810
    20  H    0.131910
    21  H    0.129385
    22  H    0.128999
    23  S    0.114740
    24  C   -0.436676
    25  C    0.049762
    26  C    0.036648
    27  N    0.012165
    28  N    0.010181
    29  C   -0.244606
    30  H    0.167869
    31  H    0.155861
    32  H    0.163571
    33  C   -0.245550
    34  H    0.165595
    35  H    0.172947
    36  H    0.139844
    37  C   -0.247027
    38  H    0.166179
    39  H    0.157263
    40  H    0.164338
    41  C   -0.247798
    42  H    0.164929
    43  H    0.173427
    44  H    0.141315
 Sum of Mulliken charges =   1.00000

 Dipole moment (field-independent basis, Debye):
    X=            -12.4753    Y=              1.2028    Z=              0.5036  Tot=             12.5432
 Quadrupole moment (field-independent basis, Debye-Ang):
   XX=            -28.2429   YY=           -114.6672   ZZ=           -141.3573
   XY=             -6.8605   XZ=              4.8097   YZ=              3.2418

 Normal termination of Gaussian 16 at Tue Jan 26 21:02:58 2021.
