 Gaussian 16, Revision A.03,
 Gaussian 16:  EM64L-G16RevA.03 25-Dec-2016

 ----------------------------------------------------------------------
 #P LC-wHPBE/TZVP iop(3/107=0173000000, 3/108=0173000000) scf=(conver=6
 ,fermi,ndamp=35,noincfock,novaracc,vshift=500,xqc)
 ----------------------------------------------------------------------

 -------------
 H21 C19 S2 N2
 -------------
 Symbolic Z-matrix:
 Charge =  2 Multiplicity = 2

                         Standard orientation:
 ---------------------------------------------------------------------
 Center     Atomic      Atomic             Coordinates (Angstroms)
 Number     Number       Type             X           Y           Z
 ---------------------------------------------------------------------
      1          6           0        5.141333    0.341453   -1.428653
      2          6           0        4.246330    0.793113   -0.457920
      3         16           0        3.527427    2.438238   -0.612926
      4          6           0        3.852580   -0.085202    0.570411
      5          6           0        0.863708   -0.787434    0.770822
      6          6           0        1.152588   -1.949541    0.292605
      7          6           0        5.641454   -0.963707   -1.380320
      8          6           0        4.337968   -1.397272    0.611701
      9          1           0        2.805747   -0.536686    2.620663
     10          6           0       -0.327590   -0.104924    0.757243
     11          6           0        0.161049   -2.709273   -0.336618
     12          6           0       -1.110551   -2.125038   -0.416532
     13          6           0       -1.366563   -0.836811    0.116144
     14          1           0       -0.506361    0.876389    1.203135
     15          1           0        0.333628   -3.701573   -0.760587
     16          1           0       -1.915541   -2.656529   -0.930176
     17          6           0        5.242141   -1.827604   -0.363151
     18          1           0        5.450891    1.025420   -2.219360
     19          1           0        4.159480    2.990100    0.460876
     20          1           0        6.347910   -1.298886   -2.140548
     21          1           0        4.022912   -2.077842    1.402557
     22          1           0        5.625918   -2.847650   -0.323690
     23         16           0        2.641644    0.489998    1.741439
     24          6           0       -2.680648   -0.257498    0.003764
     25          6           0       -4.054270   -0.413992   -0.132503
     26          6           0       -3.489875    0.870167   -0.052158
     27          7           0       -5.099740   -1.211802   -0.243141
     28          7           0       -3.607387    2.185094   -0.049886
     29          6           0       -4.958870   -2.662960   -0.086881
     30          1           0       -5.249390   -3.175063   -1.015650
     31          1           0       -3.921906   -2.911213    0.159186
     32          1           0       -5.607057   -3.011636    0.730112
     33          6           0       -6.456302   -0.708508   -0.463149
     34          1           0       -6.932296   -1.289768   -1.265044
     35          1           0       -7.062340   -0.804638    0.450448
     36          1           0       -6.424137    0.340187   -0.774131
     37          6           0       -2.422516    3.047015   -0.104701
     38          1           0       -2.374233    3.683098    0.791036
     39          1           0       -1.518165    2.434104   -0.168534
     40          1           0       -2.472812    3.689712   -0.995626
     41          6           0       -4.905946    2.859820   -0.071613
     42          1           0       -4.903422    3.671788    0.668659
     43          1           0       -5.109136    3.288120   -1.064906
     44          1           0       -5.701050    2.156915    0.195603
 ---------------------------------------------------------------------

 SCF Done:  E(ULC-wHPBE) =  -1640.96019393     A.U. after   33 cycles
 SCF Done:  E(ULC-wHPBE) =  -1640.96020182     a.u. after    2 cycles

 The electronic state is 2-A.
 Alpha  occ. eigenvalues --  -88.51169 -88.39945 -14.37715 -14.37531 -10.30649
 Alpha  occ. eigenvalues --  -10.30593 -10.28271 -10.27121 -10.27019 -10.26617
 Alpha  occ. eigenvalues --  -10.26417 -10.25975 -10.25278 -10.25044 -10.24428
 Alpha  occ. eigenvalues --  -10.23742 -10.23170 -10.23143 -10.22937 -10.22184
 Alpha  occ. eigenvalues --  -10.20690 -10.20582 -10.20516  -8.09844  -7.99105
 Alpha  occ. eigenvalues --   -6.11783  -6.11663  -6.11293  -6.01329  -6.00883
 Alpha  occ. eigenvalues --   -6.00102  -1.24700  -1.21934  -1.17085  -1.15224
 Alpha  occ. eigenvalues --   -1.13511  -1.07703  -1.05086  -1.03378  -1.03107
 Alpha  occ. eigenvalues --   -0.98674  -0.98430  -0.98143  -0.97329  -0.96131
 Alpha  occ. eigenvalues --   -0.95140  -0.92465  -0.89270  -0.87331  -0.84619
 Alpha  occ. eigenvalues --   -0.82846  -0.81625  -0.81170  -0.78212  -0.77663
 Alpha  occ. eigenvalues --   -0.77029  -0.76329  -0.75245  -0.75039  -0.74777
 Alpha  occ. eigenvalues --   -0.73946  -0.72644  -0.72231  -0.71292  -0.70287
 Alpha  occ. eigenvalues --   -0.69435  -0.69073  -0.68700  -0.68227  -0.67951
 Alpha  occ. eigenvalues --   -0.67698  -0.66764  -0.66628  -0.66290  -0.66098
 Alpha  occ. eigenvalues --   -0.65857  -0.64453  -0.63972  -0.63451  -0.62466
 Alpha  occ. eigenvalues --   -0.61862  -0.59984  -0.58522  -0.57378  -0.57215
 Alpha  occ. eigenvalues --   -0.56798  -0.53788  -0.53428  -0.50752  -0.50442
 Alpha virt. eigenvalues --   -0.27748  -0.24929  -0.21472  -0.19745  -0.19212
 Alpha virt. eigenvalues --   -0.18295  -0.15395  -0.15258  -0.14380  -0.13485
 Alpha virt. eigenvalues --   -0.12245  -0.10177  -0.09718  -0.09092  -0.08459

  Beta  occ. eigenvalues --  -88.51041 -88.39937 -14.37723 -14.37539 -10.30654
  Beta  occ. eigenvalues --  -10.30599 -10.28435 -10.27011 -10.26677 -10.26434
  Beta  occ. eigenvalues --  -10.25908 -10.25899 -10.25196 -10.25091 -10.24317
  Beta  occ. eigenvalues --  -10.23741 -10.23170 -10.23142 -10.22937 -10.22176
  Beta  occ. eigenvalues --  -10.20666 -10.20554 -10.20499  -8.09713  -7.99098
  Beta  occ. eigenvalues --   -6.11698  -6.11370  -6.11152  -6.01326  -6.00879
  Beta  occ. eigenvalues --   -6.00080  -1.24713  -1.21946  -1.17065  -1.14774
  Beta  occ. eigenvalues --   -1.13298  -1.07347  -1.04459  -1.03275  -1.02988
  Beta  occ. eigenvalues --   -0.98663  -0.98225  -0.98132  -0.97332  -0.96092
  Beta  occ. eigenvalues --   -0.95038  -0.91838  -0.89041  -0.87258  -0.84515
  Beta  occ. eigenvalues --   -0.82814  -0.81606  -0.81135  -0.78134  -0.77406
  Beta  occ. eigenvalues --   -0.76824  -0.76335  -0.75139  -0.74830  -0.74429
  Beta  occ. eigenvalues --   -0.73948  -0.72559  -0.71461  -0.70976  -0.70195
  Beta  occ. eigenvalues --   -0.69324  -0.69015  -0.68618  -0.68155  -0.67810
  Beta  occ. eigenvalues --   -0.67417  -0.66740  -0.66506  -0.66284  -0.66075
  Beta  occ. eigenvalues --   -0.65779  -0.64414  -0.63876  -0.63043  -0.61795
  Beta  occ. eigenvalues --   -0.61764  -0.59900  -0.58163  -0.57376  -0.56835
  Beta  occ. eigenvalues --   -0.53812  -0.53507  -0.50663  -0.50268
  Beta virt. eigenvalues --   -0.35299  -0.25178  -0.24403  -0.21538  -0.19495
  Beta virt. eigenvalues --   -0.18860  -0.18036  -0.15431  -0.14968  -0.14087
  Beta virt. eigenvalues --   -0.13456  -0.12170  -0.10132  -0.09609  -0.09005

 Mulliken charges and spin densities:
               1          2
     1  C   -0.025213  -0.028124
     2  C   -0.240820   0.057039
     3  S   -0.008612   0.015836
     4  C   -0.022913  -0.008775
     5  C   -0.225431  -0.172702
     6  C    0.294808   0.754146
     7  C   -0.039099   0.059686
     8  C   -0.000333   0.003749
     9  H    0.176757  -0.006770
    10  C   -0.087865   0.038963
    11  C   -0.210177  -0.012132
    12  C   -0.009398   0.056723
    13  C    0.040709  -0.052811
    14  H    0.191321   0.006826
    15  H    0.193212   0.025355
    16  H    0.182814   0.004280
    17  C   -0.127226   0.011403
    18  H    0.182573   0.000651
    19  H    0.146295   0.002975
    20  H    0.174616  -0.002783
    21  H    0.162947  -0.000522
    22  H    0.167742  -0.001033
    23  S    0.308932   0.245563
    24  C   -0.466975   0.015133
    25  C    0.070588  -0.002715
    26  C    0.052657  -0.001772
    27  N    0.028583  -0.004031
    28  N    0.024896  -0.003731
    29  C   -0.243626   0.000220
    30  H    0.187936  -0.000204
    31  H    0.137581   0.000107
    32  H    0.185358  -0.000188
    33  C   -0.248126   0.000156
    34  H    0.182258  -0.000176
    35  H    0.191823  -0.000190
    36  H    0.145179  -0.000005
    37  C   -0.245151   0.000244
    38  H    0.184171  -0.000169
    39  H    0.131139   0.000164
    40  H    0.185496  -0.000218
    41  C   -0.250597   0.000168
    42  H    0.180042  -0.000170
    43  H    0.191988  -0.000165
    44  H    0.149138   0.000000
 Sum of Mulliken charges =   2.00000   1.00000

 Dipole moment (field-independent basis, Debye):
    X=             -6.3490    Y=             -1.1813    Z=              1.5084  Tot=              6.6318
 Quadrupole moment (field-independent basis, Debye-Ang):
   XX=             41.7015   YY=            -89.8816   ZZ=           -129.7374
   XY=             -8.8908   XZ=              6.2646   YZ=              4.9575

 Normal termination of Gaussian 16 at Tue Jan 26 22:43:51 2021.
