 Gaussian 16, Revision A.03,
 Gaussian 16:  EM64L-G16RevA.03 25-Dec-2016

 ----------------------------------------------------------------------
 #P LC-wHPBE/TZVP iop(3/107=0115700000, 3/108=0115700000) scf=(conver=6
 ,fermi,ndamp=35,noincfock,novaracc,vshift=500,xqc)
 ----------------------------------------------------------------------

 -------------
 H21 C19 S2 N2
 -------------
 Symbolic Z-matrix:
 Charge =  2 Multiplicity = 2

                         Standard orientation:
 ---------------------------------------------------------------------
 Center     Atomic      Atomic             Coordinates (Angstroms)
 Number     Number       Type             X           Y           Z
 ---------------------------------------------------------------------
      1          6           0        5.141333    0.341453   -1.428653
      2          6           0        4.246330    0.793113   -0.457920
      3         16           0        3.527427    2.438238   -0.612926
      4          6           0        3.852580   -0.085202    0.570411
      5          6           0        0.863708   -0.787434    0.770822
      6          6           0        1.152588   -1.949541    0.292605
      7          6           0        5.641454   -0.963707   -1.380320
      8          6           0        4.337968   -1.397272    0.611701
      9          1           0        2.805747   -0.536686    2.620663
     10          6           0       -0.327590   -0.104924    0.757243
     11          6           0        0.161049   -2.709273   -0.336618
     12          6           0       -1.110551   -2.125038   -0.416532
     13          6           0       -1.366563   -0.836811    0.116144
     14          1           0       -0.506361    0.876389    1.203135
     15          1           0        0.333628   -3.701573   -0.760587
     16          1           0       -1.915541   -2.656529   -0.930176
     17          6           0        5.242141   -1.827604   -0.363151
     18          1           0        5.450891    1.025420   -2.219360
     19          1           0        4.159480    2.990100    0.460876
     20          1           0        6.347910   -1.298886   -2.140548
     21          1           0        4.022912   -2.077842    1.402557
     22          1           0        5.625918   -2.847650   -0.323690
     23         16           0        2.641644    0.489998    1.741439
     24          6           0       -2.680648   -0.257498    0.003764
     25          6           0       -4.054270   -0.413992   -0.132503
     26          6           0       -3.489875    0.870167   -0.052158
     27          7           0       -5.099740   -1.211802   -0.243141
     28          7           0       -3.607387    2.185094   -0.049886
     29          6           0       -4.958870   -2.662960   -0.086881
     30          1           0       -5.249390   -3.175063   -1.015650
     31          1           0       -3.921906   -2.911213    0.159186
     32          1           0       -5.607057   -3.011636    0.730112
     33          6           0       -6.456302   -0.708508   -0.463149
     34          1           0       -6.932296   -1.289768   -1.265044
     35          1           0       -7.062340   -0.804638    0.450448
     36          1           0       -6.424137    0.340187   -0.774131
     37          6           0       -2.422516    3.047015   -0.104701
     38          1           0       -2.374233    3.683098    0.791036
     39          1           0       -1.518165    2.434104   -0.168534
     40          1           0       -2.472812    3.689712   -0.995626
     41          6           0       -4.905946    2.859820   -0.071613
     42          1           0       -4.903422    3.671788    0.668659
     43          1           0       -5.109136    3.288120   -1.064906
     44          1           0       -5.701050    2.156915    0.195603
 ---------------------------------------------------------------------

 SCF Done:  E(ULC-wHPBE) =  -1640.88882331     A.U. after   33 cycles
 SCF Done:  E(ULC-wHPBE) =  -1640.88883353     a.u. after    2 cycles

 The electronic state is 2-A.
 Alpha  occ. eigenvalues --  -88.47432 -88.37516 -14.34420 -14.34223 -10.27004
 Alpha  occ. eigenvalues --  -10.26944 -10.24228 -10.23493 -10.23357 -10.23042
 Alpha  occ. eigenvalues --  -10.22965 -10.22416 -10.22305 -10.21395 -10.20780
 Alpha  occ. eigenvalues --  -10.20442 -10.19852 -10.19833 -10.19634 -10.19088
 Alpha  occ. eigenvalues --  -10.17865 -10.17691 -10.17653  -8.06108  -7.96625
 Alpha  occ. eigenvalues --   -6.08101  -6.07924  -6.07627  -5.98871  -5.98438
 Alpha  occ. eigenvalues --   -5.97715  -1.21112  -1.18456  -1.13504  -1.11354
 Alpha  occ. eigenvalues --   -1.10166  -1.04311  -1.01278  -1.00376  -0.99421
 Alpha  occ. eigenvalues --   -0.95305  -0.95281  -0.94757  -0.93967  -0.92790
 Alpha  occ. eigenvalues --   -0.92337  -0.88859  -0.85714  -0.84425  -0.81798
 Alpha  occ. eigenvalues --   -0.79451  -0.78485  -0.78043  -0.75405  -0.74431
 Alpha  occ. eigenvalues --   -0.73838  -0.73126  -0.72376  -0.72018  -0.71657
 Alpha  occ. eigenvalues --   -0.70870  -0.70000  -0.69048  -0.68429  -0.67030
 Alpha  occ. eigenvalues --   -0.66704  -0.66504  -0.65898  -0.65347  -0.65010
 Alpha  occ. eigenvalues --   -0.64778  -0.63910  -0.63822  -0.63448  -0.63309
 Alpha  occ. eigenvalues --   -0.63015  -0.61723  -0.61182  -0.60956  -0.59907
 Alpha  occ. eigenvalues --   -0.59548  -0.57890  -0.55733  -0.54686  -0.54259
 Alpha  occ. eigenvalues --   -0.54049  -0.51825  -0.51418  -0.48959  -0.48297
 Alpha virt. eigenvalues --   -0.29160  -0.26291  -0.23119  -0.21792  -0.21438
 Alpha virt. eigenvalues --   -0.20467  -0.17318  -0.17240  -0.16342  -0.15356
 Alpha virt. eigenvalues --   -0.14745  -0.12282  -0.11934  -0.10951  -0.10445

  Beta  occ. eigenvalues --  -88.47321 -88.37495 -14.34427 -14.34231 -10.27007
  Beta  occ. eigenvalues --  -10.26949 -10.24357 -10.23487 -10.23359 -10.23014
  Beta  occ. eigenvalues --  -10.22325 -10.22245 -10.21919 -10.21427 -10.20680
  Beta  occ. eigenvalues --  -10.20441 -10.19852 -10.19832 -10.19634 -10.19094
  Beta  occ. eigenvalues --  -10.17815 -10.17689 -10.17604  -8.05994  -7.96604
  Beta  occ. eigenvalues --   -6.08030  -6.07683  -6.07489  -5.98860  -5.98424
  Beta  occ. eigenvalues --   -5.97656  -1.21123  -1.18467  -1.13494  -1.10946
  Beta  occ. eigenvalues --   -1.09953  -1.03983  -1.00722  -1.00228  -0.99295
  Beta  occ. eigenvalues --   -0.95273  -0.95114  -0.94755  -0.93969  -0.92760
  Beta  occ. eigenvalues --   -0.92177  -0.88298  -0.85505  -0.84342  -0.81671
  Beta  occ. eigenvalues --   -0.79422  -0.78470  -0.78018  -0.75329  -0.74225
  Beta  occ. eigenvalues --   -0.73664  -0.73137  -0.72272  -0.71903  -0.71286
  Beta  occ. eigenvalues --   -0.70870  -0.69911  -0.68407  -0.68199  -0.66972
  Beta  occ. eigenvalues --   -0.66600  -0.66407  -0.65827  -0.65303  -0.64786
  Beta  occ. eigenvalues --   -0.64608  -0.63898  -0.63695  -0.63445  -0.63284
  Beta  occ. eigenvalues --   -0.62931  -0.61679  -0.61092  -0.60701  -0.59466
  Beta  occ. eigenvalues --   -0.59314  -0.57782  -0.55398  -0.54697  -0.54132
  Beta  occ. eigenvalues --   -0.51903  -0.51552  -0.48780  -0.48149
  Beta virt. eigenvalues --   -0.36730  -0.27099  -0.25841  -0.23153  -0.21545
  Beta virt. eigenvalues --   -0.21104  -0.20248  -0.17343  -0.16979  -0.16059
  Beta virt. eigenvalues --   -0.15328  -0.14645  -0.12136  -0.11895  -0.10875

 Mulliken charges and spin densities:
               1          2
     1  C   -0.018746  -0.024922
     2  C   -0.240440   0.062654
     3  S    0.005806   0.045277
     4  C   -0.006111   0.002818
     5  C   -0.227627  -0.142004
     6  C    0.289600   0.693379
     7  C   -0.035685   0.059296
     8  C   -0.000412  -0.008347
     9  H    0.175429  -0.005953
    10  C   -0.088637   0.031890
    11  C   -0.213646  -0.002139
    12  C   -0.009249   0.048253
    13  C    0.045556  -0.043524
    14  H    0.185545   0.007378
    15  H    0.188399   0.023638
    16  H    0.178219   0.004971
    17  C   -0.119281   0.032607
    18  H    0.180357   0.000282
    19  H    0.150673   0.002985
    20  H    0.174092  -0.002791
    21  H    0.161461   0.000187
    22  H    0.168082  -0.002034
    23  S    0.285407   0.214503
    24  C   -0.462216   0.012371
    25  C    0.070884  -0.002382
    26  C    0.052640  -0.001387
    27  N    0.028133  -0.003488
    28  N    0.024414  -0.003157
    29  C   -0.253351   0.000151
    30  H    0.189842  -0.000183
    31  H    0.141916   0.000135
    32  H    0.187488  -0.000155
    33  C   -0.256987   0.000119
    34  H    0.184403  -0.000160
    35  H    0.193861  -0.000171
    36  H    0.148137  -0.000005
    37  C   -0.255034   0.000157
    38  H    0.186025  -0.000136
    39  H    0.134881   0.000243
    40  H    0.187332  -0.000197
    41  C   -0.259434   0.000129
    42  H    0.182136  -0.000153
    43  H    0.193876  -0.000139
    44  H    0.152258   0.000002
 Sum of Mulliken charges =   2.00000   1.00000

 Dipole moment (field-independent basis, Debye):
    X=             -5.7634    Y=             -0.8264    Z=              1.2464  Tot=              5.9542
 Quadrupole moment (field-independent basis, Debye-Ang):
   XX=             44.4348   YY=            -89.6478   ZZ=           -130.0671
   XY=             -8.2898   XZ=              5.3513   YZ=              4.7034

 Normal termination of Gaussian 16 at Tue Jan 26 18:10:30 2021.
