 Gaussian 16, Revision A.03,
 Gaussian 16:  EM64L-G16RevA.03 25-Dec-2016

 ----------------------------------------------------------------------
 #P LC-wHPBE/TZVP iop(3/107=0156200000, 3/108=0156200000) scf=(conver=6
 ,fermi,ndamp=35,noincfock,novaracc,vshift=500,xqc)
 ----------------------------------------------------------------------

 -------------
 H21 C19 S2 N2
 -------------
 Symbolic Z-matrix:
 Charge =  1 Multiplicity = 1

                         Standard orientation:
 ---------------------------------------------------------------------
 Center     Atomic      Atomic             Coordinates (Angstroms)
 Number     Number       Type             X           Y           Z
 ---------------------------------------------------------------------
      1          6           0        5.141333    0.341453   -1.428653
      2          6           0        4.246330    0.793113   -0.457920
      3         16           0        3.527427    2.438238   -0.612926
      4          6           0        3.852580   -0.085202    0.570411
      5          6           0        0.863708   -0.787434    0.770822
      6          6           0        1.152588   -1.949541    0.292605
      7          6           0        5.641454   -0.963707   -1.380320
      8          6           0        4.337968   -1.397272    0.611701
      9          1           0        2.805747   -0.536686    2.620663
     10          6           0       -0.327590   -0.104924    0.757243
     11          6           0        0.161049   -2.709273   -0.336618
     12          6           0       -1.110551   -2.125038   -0.416532
     13          6           0       -1.366563   -0.836811    0.116144
     14          1           0       -0.506361    0.876389    1.203135
     15          1           0        0.333628   -3.701573   -0.760587
     16          1           0       -1.915541   -2.656529   -0.930176
     17          6           0        5.242141   -1.827604   -0.363151
     18          1           0        5.450891    1.025420   -2.219360
     19          1           0        4.159480    2.990100    0.460876
     20          1           0        6.347910   -1.298886   -2.140548
     21          1           0        4.022912   -2.077842    1.402557
     22          1           0        5.625918   -2.847650   -0.323690
     23         16           0        2.641644    0.489998    1.741439
     24          6           0       -2.680648   -0.257498    0.003764
     25          6           0       -4.054270   -0.413992   -0.132503
     26          6           0       -3.489875    0.870167   -0.052158
     27          7           0       -5.099740   -1.211802   -0.243141
     28          7           0       -3.607387    2.185094   -0.049886
     29          6           0       -4.958870   -2.662960   -0.086881
     30          1           0       -5.249390   -3.175063   -1.015650
     31          1           0       -3.921906   -2.911213    0.159186
     32          1           0       -5.607057   -3.011636    0.730112
     33          6           0       -6.456302   -0.708508   -0.463149
     34          1           0       -6.932296   -1.289768   -1.265044
     35          1           0       -7.062340   -0.804638    0.450448
     36          1           0       -6.424137    0.340187   -0.774131
     37          6           0       -2.422516    3.047015   -0.104701
     38          1           0       -2.374233    3.683098    0.791036
     39          1           0       -1.518165    2.434104   -0.168534
     40          1           0       -2.472812    3.689712   -0.995626
     41          6           0       -4.905946    2.859820   -0.071613
     42          1           0       -4.903422    3.671788    0.668659
     43          1           0       -5.109136    3.288120   -1.064906
     44          1           0       -5.701050    2.156915    0.195603
 ---------------------------------------------------------------------

 SCF Done:  E(RLC-wHPBE) =  -1641.29104522     A.U. after   17 cycles

 The electronic state is 1-A.
 Alpha  occ. eigenvalues --  -88.31225 -88.26509 -14.26832 -14.26826 -10.19210
 Alpha  occ. eigenvalues --  -10.19177 -10.15629 -10.13903 -10.13878 -10.13412
 Alpha  occ. eigenvalues --  -10.13369 -10.11553 -10.11291 -10.10620 -10.10557
 Alpha  occ. eigenvalues --  -10.09206 -10.09129 -10.08803 -10.07551 -10.06850
 Alpha  occ. eigenvalues --  -10.06634 -10.06423 -10.05209  -7.90224  -7.85692
 Alpha  occ. eigenvalues --   -5.92344  -5.91917  -5.91507  -5.87927  -5.87505
 Alpha  occ. eigenvalues --   -5.86682  -1.13811  -1.11418  -1.05817  -0.98538
 Alpha  occ. eigenvalues --   -0.98032  -0.91435  -0.89285  -0.89044  -0.88489
 Alpha  occ. eigenvalues --   -0.88332  -0.87104  -0.86980  -0.85728  -0.83431
 Alpha  occ. eigenvalues --   -0.81057  -0.76491  -0.73653  -0.72820  -0.71517
 Alpha  occ. eigenvalues --   -0.71243  -0.70366  -0.68358  -0.66042  -0.65920
 Alpha  occ. eigenvalues --   -0.65482  -0.64211  -0.63678  -0.61113  -0.60309
 Alpha  occ. eigenvalues --   -0.59833  -0.59037  -0.58778  -0.58307  -0.58113
 Alpha  occ. eigenvalues --   -0.57312  -0.57209  -0.57033  -0.56558  -0.56340
 Alpha  occ. eigenvalues --   -0.55395  -0.55054  -0.54944  -0.54103  -0.52801
 Alpha  occ. eigenvalues --   -0.52411  -0.52016  -0.51515  -0.49332  -0.47821
 Alpha  occ. eigenvalues --   -0.47375  -0.46872  -0.46225  -0.43875  -0.41561
 Alpha  occ. eigenvalues --   -0.40474  -0.39415  -0.38524  -0.37615  -0.34770
 Alpha virt. eigenvalues --   -0.12236  -0.10829  -0.07662  -0.06433  -0.06193
 Alpha virt. eigenvalues --   -0.05925  -0.04876  -0.04733  -0.02201  -0.01975
 Alpha virt. eigenvalues --   -0.01597  -0.00944  -0.00899   0.00335   0.00742

 Mulliken charges:
               1
     1  C   -0.047807
     2  C   -0.235203
     3  S   -0.081358
     4  C    0.025662
     5  C   -0.196178
     6  C    0.132928
     7  C   -0.063912
     8  C    0.019735
     9  H    0.140052
    10  C   -0.116410
    11  C   -0.265761
    12  C   -0.039711
    13  C    0.074821
    14  H    0.141404
    15  H    0.126931
    16  H    0.136520
    17  C   -0.136349
    18  H    0.140297
    19  H    0.124053
    20  H    0.130989
    21  H    0.128008
    22  H    0.128201
    23  S    0.114182
    24  C   -0.437281
    25  C    0.050184
    26  C    0.036889
    27  N    0.012816
    28  N    0.010866
    29  C   -0.247256
    30  H    0.168371
    31  H    0.156729
    32  H    0.164165
    33  C   -0.248153
    34  H    0.166163
    35  H    0.173438
    36  H    0.140743
    37  C   -0.249774
    38  H    0.166661
    39  H    0.158217
    40  H    0.164910
    41  C   -0.250378
    42  H    0.165493
    43  H    0.173906
    44  H    0.142197
 Sum of Mulliken charges =   1.00000

 Dipole moment (field-independent basis, Debye):
    X=            -12.4262    Y=              1.2127    Z=              0.4971  Tot=             12.4952
 Quadrupole moment (field-independent basis, Debye-Ang):
   XX=            -28.2394   YY=           -114.6999   ZZ=           -141.4081
   XY=             -6.8265   XZ=              4.7936   YZ=              3.2261

 Normal termination of Gaussian 16 at Tue Jan 26 16:30:14 2021.
