 Gaussian 16, Revision A.03,
 Gaussian 16:  EM64L-G16RevA.03 25-Dec-2016

 ----------------------------------------------------------------------
 #P LC-wHPBE/TZVP iop(3/107=0221900000, 3/108=0221900000) scf=(conver=6
 ,fermi,ndamp=35,noincfock,novaracc,vshift=500,xqc)
 ----------------------------------------------------------------------

 -------------
 H21 C19 S2 N2
 -------------
 Symbolic Z-matrix:
 Charge =  2 Multiplicity = 2

                         Standard orientation:
 ---------------------------------------------------------------------
 Center     Atomic      Atomic             Coordinates (Angstroms)
 Number     Number       Type             X           Y           Z
 ---------------------------------------------------------------------
      1          6           0        5.141333    0.341453   -1.428653
      2          6           0        4.246330    0.793113   -0.457920
      3         16           0        3.527427    2.438238   -0.612926
      4          6           0        3.852580   -0.085202    0.570411
      5          6           0        0.863708   -0.787434    0.770822
      6          6           0        1.152588   -1.949541    0.292605
      7          6           0        5.641454   -0.963707   -1.380320
      8          6           0        4.337968   -1.397272    0.611701
      9          1           0        2.805747   -0.536686    2.620663
     10          6           0       -0.327590   -0.104924    0.757243
     11          6           0        0.161049   -2.709273   -0.336618
     12          6           0       -1.110551   -2.125038   -0.416532
     13          6           0       -1.366563   -0.836811    0.116144
     14          1           0       -0.506361    0.876389    1.203135
     15          1           0        0.333628   -3.701573   -0.760587
     16          1           0       -1.915541   -2.656529   -0.930176
     17          6           0        5.242141   -1.827604   -0.363151
     18          1           0        5.450891    1.025420   -2.219360
     19          1           0        4.159480    2.990100    0.460876
     20          1           0        6.347910   -1.298886   -2.140548
     21          1           0        4.022912   -2.077842    1.402557
     22          1           0        5.625918   -2.847650   -0.323690
     23         16           0        2.641644    0.489998    1.741439
     24          6           0       -2.680648   -0.257498    0.003764
     25          6           0       -4.054270   -0.413992   -0.132503
     26          6           0       -3.489875    0.870167   -0.052158
     27          7           0       -5.099740   -1.211802   -0.243141
     28          7           0       -3.607387    2.185094   -0.049886
     29          6           0       -4.958870   -2.662960   -0.086881
     30          1           0       -5.249390   -3.175063   -1.015650
     31          1           0       -3.921906   -2.911213    0.159186
     32          1           0       -5.607057   -3.011636    0.730112
     33          6           0       -6.456302   -0.708508   -0.463149
     34          1           0       -6.932296   -1.289768   -1.265044
     35          1           0       -7.062340   -0.804638    0.450448
     36          1           0       -6.424137    0.340187   -0.774131
     37          6           0       -2.422516    3.047015   -0.104701
     38          1           0       -2.374233    3.683098    0.791036
     39          1           0       -1.518165    2.434104   -0.168534
     40          1           0       -2.472812    3.689712   -0.995626
     41          6           0       -4.905946    2.859820   -0.071613
     42          1           0       -4.903422    3.671788    0.668659
     43          1           0       -5.109136    3.288120   -1.064906
     44          1           0       -5.701050    2.156915    0.195603
 ---------------------------------------------------------------------

 SCF Done:  E(ULC-wHPBE) =  -1641.02188600     A.U. after   33 cycles
 SCF Done:  E(ULC-wHPBE) =  -1641.02189000     a.u. after    2 cycles

 The electronic state is 2-A.
 Alpha  occ. eigenvalues --  -88.54240 -88.42288 -14.40443 -14.40265 -10.33755
 Alpha  occ. eigenvalues --  -10.33700 -10.31627 -10.30384 -10.29995 -10.29648
 Alpha  occ. eigenvalues --  -10.29077 -10.29027 -10.28039 -10.27817 -10.27441
 Alpha  occ. eigenvalues --  -10.26525 -10.25968 -10.25914 -10.25714 -10.24859
 Alpha  occ. eigenvalues --  -10.23181 -10.23098 -10.23037  -8.12942  -8.01505
 Alpha  occ. eigenvalues --   -6.14816  -6.14725  -6.14309  -6.03678  -6.03220
 Alpha  occ. eigenvalues --   -6.02415  -1.27748  -1.24856  -1.20086  -1.18435
 Alpha  occ. eigenvalues --   -1.16412  -1.10573  -1.08185  -1.06276  -1.05865
 Alpha  occ. eigenvalues --   -1.01468  -1.01053  -1.00916  -1.00057  -0.98829
 Alpha  occ. eigenvalues --   -0.97584  -0.95299  -0.92044  -0.89708  -0.86918
 Alpha  occ. eigenvalues --   -0.85455  -0.84051  -0.83580  -0.80400  -0.80116
 Alpha  occ. eigenvalues --   -0.79457  -0.78827  -0.77568  -0.77287  -0.77024
 Alpha  occ. eigenvalues --   -0.76310  -0.74692  -0.74586  -0.73518  -0.72734
 Alpha  occ. eigenvalues --   -0.71524  -0.71090  -0.70722  -0.70371  -0.70216
 Alpha  occ. eigenvalues --   -0.69739  -0.68887  -0.68714  -0.68407  -0.68163
 Alpha  occ. eigenvalues --   -0.67927  -0.66477  -0.66024  -0.65354  -0.64307
 Alpha  occ. eigenvalues --   -0.63598  -0.61568  -0.60401  -0.59407  -0.59228
 Alpha  occ. eigenvalues --   -0.58591  -0.55156  -0.54746  -0.52139  -0.51879
 Alpha virt. eigenvalues --   -0.26832  -0.24113  -0.20462  -0.18459  -0.17825
 Alpha virt. eigenvalues --   -0.16918  -0.14117  -0.13977  -0.13084  -0.12330
 Alpha virt. eigenvalues --   -0.10677  -0.09038  -0.08127  -0.07905  -0.07186

  Beta  occ. eigenvalues --  -88.54100 -88.42285 -14.40453 -14.40275 -10.33760
  Beta  occ. eigenvalues --  -10.33707 -10.31825 -10.29984 -10.29719 -10.29106
  Beta  occ. eigenvalues --  -10.29097 -10.28954 -10.28102 -10.27741 -10.27320
  Beta  occ. eigenvalues --  -10.26524 -10.25968 -10.25914 -10.25714 -10.24840
  Beta  occ. eigenvalues --  -10.23173 -10.23079 -10.23018  -8.12798  -8.01502
  Beta  occ. eigenvalues --   -6.14720  -6.14399  -6.14161  -6.03678  -6.03219
  Beta  occ. eigenvalues --   -6.02404  -1.27763  -1.24870  -1.20050  -1.17976
  Beta  occ. eigenvalues --   -1.16185  -1.10190  -1.07504  -1.06170  -1.05773
  Beta  occ. eigenvalues --   -1.01455  -1.00932  -1.00798  -1.00060  -0.98780
  Beta  occ. eigenvalues --   -0.97509  -0.94612  -0.91805  -0.89640  -0.86831
  Beta  occ. eigenvalues --   -0.85422  -0.84030  -0.83534  -0.80313  -0.79839
  Beta  occ. eigenvalues --   -0.79224  -0.78817  -0.77390  -0.77024  -0.76747
  Beta  occ. eigenvalues --   -0.76314  -0.74601  -0.73700  -0.73145  -0.72595
  Beta  occ. eigenvalues --   -0.71428  -0.71019  -0.70659  -0.70254  -0.70087
  Beta  occ. eigenvalues --   -0.69441  -0.68860  -0.68585  -0.68394  -0.68140
  Beta  occ. eigenvalues --   -0.67852  -0.66441  -0.65918  -0.64790  -0.63547
  Beta  occ. eigenvalues --   -0.63496  -0.61494  -0.60031  -0.59291  -0.58627
  Beta  occ. eigenvalues --   -0.55175  -0.54792  -0.52096  -0.51693
  Beta virt. eigenvalues --   -0.34337  -0.23848  -0.23519  -0.20552  -0.18182
  Beta virt. eigenvalues --   -0.17466  -0.16635  -0.14165  -0.13671  -0.12790
  Beta virt. eigenvalues --   -0.12296  -0.10615  -0.08998  -0.08029  -0.07810

 Mulliken charges and spin densities:
               1          2
     1  C   -0.030291  -0.030834
     2  C   -0.243261   0.053763
     3  S   -0.013320   0.005815
     4  C   -0.036478  -0.018932
     5  C   -0.225147  -0.201402
     6  C    0.293545   0.795447
     7  C   -0.045756   0.059221
     8  C   -0.003931   0.014073
     9  H    0.178234  -0.007516
    10  C   -0.088228   0.046768
    11  C   -0.207706  -0.023761
    12  C   -0.013571   0.065364
    13  C    0.040022  -0.062264
    14  H    0.198067   0.006137
    15  H    0.198586   0.026411
    16  H    0.188679   0.003557
    17  C   -0.133932  -0.002399
    18  H    0.186974   0.000897
    19  H    0.143816   0.002738
    20  H    0.177875  -0.002722
    21  H    0.167147  -0.001127
    22  H    0.170601  -0.000363
    23  S    0.325006   0.268452
    24  C   -0.465033   0.017649
    25  C    0.070895  -0.003214
    26  C    0.053090  -0.002320
    27  N    0.023901  -0.004638
    28  N    0.020180  -0.004338
    29  C   -0.237574   0.000295
    30  H    0.187206  -0.000229
    31  H    0.134484   0.000079
    32  H    0.184199  -0.000221
    33  C   -0.242419   0.000199
    34  H    0.181067  -0.000197
    35  H    0.191037  -0.000212
    36  H    0.142789  -0.000005
    37  C   -0.238807   0.000331
    38  H    0.183476  -0.000198
    39  H    0.128121   0.000107
    40  H    0.184531  -0.000245
    41  C   -0.244941   0.000214
    42  H    0.178863  -0.000189
    43  H    0.191302  -0.000190
    44  H    0.146700  -0.000001
 Sum of Mulliken charges =   2.00000   1.00000

 Dipole moment (field-independent basis, Debye):
    X=             -6.6837    Y=             -1.3620    Z=              1.6791  Tot=              7.0247
 Quadrupole moment (field-independent basis, Debye-Ang):
   XX=             39.9021   YY=            -89.9557   ZZ=           -129.4861
   XY=             -9.1166   XZ=              6.8396   YZ=              5.0807

 Normal termination of Gaussian 16 at Tue Jan 26 15:27:09 2021.
