 Gaussian 16, Revision A.03,
 Gaussian 16:  EM64L-G16RevA.03 25-Dec-2016

 ----------------------------------------------------------------------
 #P LC-wHPBE/TZVP iop(3/107=0171200000, 3/108=0171200000) scf=(conver=6
 ,fermi,ndamp=35,noincfock,novaracc,vshift=500,xqc)
 ----------------------------------------------------------------------

 -------------
 H21 C19 S2 N2
 -------------
 Symbolic Z-matrix:
 Charge =  2 Multiplicity = 2

                         Standard orientation:
 ---------------------------------------------------------------------
 Center     Atomic      Atomic             Coordinates (Angstroms)
 Number     Number       Type             X           Y           Z
 ---------------------------------------------------------------------
      1          6           0        5.141333    0.341453   -1.428653
      2          6           0        4.246330    0.793113   -0.457920
      3         16           0        3.527427    2.438238   -0.612926
      4          6           0        3.852580   -0.085202    0.570411
      5          6           0        0.863708   -0.787434    0.770822
      6          6           0        1.152588   -1.949541    0.292605
      7          6           0        5.641454   -0.963707   -1.380320
      8          6           0        4.337968   -1.397272    0.611701
      9          1           0        2.805747   -0.536686    2.620663
     10          6           0       -0.327590   -0.104924    0.757243
     11          6           0        0.161049   -2.709273   -0.336618
     12          6           0       -1.110551   -2.125038   -0.416532
     13          6           0       -1.366563   -0.836811    0.116144
     14          1           0       -0.506361    0.876389    1.203135
     15          1           0        0.333628   -3.701573   -0.760587
     16          1           0       -1.915541   -2.656529   -0.930176
     17          6           0        5.242141   -1.827604   -0.363151
     18          1           0        5.450891    1.025420   -2.219360
     19          1           0        4.159480    2.990100    0.460876
     20          1           0        6.347910   -1.298886   -2.140548
     21          1           0        4.022912   -2.077842    1.402557
     22          1           0        5.625918   -2.847650   -0.323690
     23         16           0        2.641644    0.489998    1.741439
     24          6           0       -2.680648   -0.257498    0.003764
     25          6           0       -4.054270   -0.413992   -0.132503
     26          6           0       -3.489875    0.870167   -0.052158
     27          7           0       -5.099740   -1.211802   -0.243141
     28          7           0       -3.607387    2.185094   -0.049886
     29          6           0       -4.958870   -2.662960   -0.086881
     30          1           0       -5.249390   -3.175063   -1.015650
     31          1           0       -3.921906   -2.911213    0.159186
     32          1           0       -5.607057   -3.011636    0.730112
     33          6           0       -6.456302   -0.708508   -0.463149
     34          1           0       -6.932296   -1.289768   -1.265044
     35          1           0       -7.062340   -0.804638    0.450448
     36          1           0       -6.424137    0.340187   -0.774131
     37          6           0       -2.422516    3.047015   -0.104701
     38          1           0       -2.374233    3.683098    0.791036
     39          1           0       -1.518165    2.434104   -0.168534
     40          1           0       -2.472812    3.689712   -0.995626
     41          6           0       -4.905946    2.859820   -0.071613
     42          1           0       -4.903422    3.671788    0.668659
     43          1           0       -5.109136    3.288120   -1.064906
     44          1           0       -5.701050    2.156915    0.195603
 ---------------------------------------------------------------------

 SCF Done:  E(ULC-wHPBE) =  -1640.95788039     A.U. after   33 cycles
 SCF Done:  E(ULC-wHPBE) =  -1640.95788846     a.u. after    2 cycles

 The electronic state is 2-A.
 Alpha  occ. eigenvalues --  -88.51053 -88.39863 -14.37613 -14.37428 -10.30535
 Alpha  occ. eigenvalues --  -10.30478 -10.28145 -10.26997 -10.26909 -10.26503
 Alpha  occ. eigenvalues --  -10.26321 -10.25860 -10.25187 -10.24932 -10.24315
 Alpha  occ. eigenvalues --  -10.23639 -10.23066 -10.23040 -10.22834 -10.22086
 Alpha  occ. eigenvalues --  -10.20600 -10.20491 -10.20425  -8.09728  -7.99022
 Alpha  occ. eigenvalues --   -6.11669  -6.11547  -6.11180  -6.01247  -6.00802
 Alpha  occ. eigenvalues --   -6.00022  -1.24587  -1.21825  -1.16973  -1.15104
 Alpha  occ. eigenvalues --   -1.13405  -1.07597  -1.04968  -1.03278  -1.02997
 Alpha  occ. eigenvalues --   -0.98569  -0.98332  -0.98038  -0.97225  -0.96028
 Alpha  occ. eigenvalues --   -0.95051  -0.92355  -0.89163  -0.87241  -0.84533
 Alpha  occ. eigenvalues --   -0.82744  -0.81531  -0.81076  -0.78128  -0.77567
 Alpha  occ. eigenvalues --   -0.76934  -0.76232  -0.75156  -0.74951  -0.74687
 Alpha  occ. eigenvalues --   -0.73853  -0.72565  -0.72137  -0.71206  -0.70190
 Alpha  occ. eigenvalues --   -0.69354  -0.68996  -0.68620  -0.68142  -0.67861
 Alpha  occ. eigenvalues --   -0.67617  -0.66681  -0.66545  -0.66207  -0.66017
 Alpha  occ. eigenvalues --   -0.65774  -0.64373  -0.63890  -0.63376  -0.62393
 Alpha  occ. eigenvalues --   -0.61795  -0.59923  -0.58444  -0.57300  -0.57131
 Alpha  occ. eigenvalues --   -0.56723  -0.53733  -0.53373  -0.50699  -0.50383
 Alpha virt. eigenvalues --   -0.27786  -0.24964  -0.21515  -0.19800  -0.19272
 Alpha virt. eigenvalues --   -0.18354  -0.15448  -0.15311  -0.14434  -0.13534
 Alpha virt. eigenvalues --   -0.12313  -0.10226  -0.09785  -0.09142  -0.08513

  Beta  occ. eigenvalues --  -88.50926 -88.39856 -14.37621 -14.37437 -10.30539
  Beta  occ. eigenvalues --  -10.30484 -10.28308 -10.26900 -10.26563 -10.26337
  Beta  occ. eigenvalues --  -10.25794 -10.25777 -10.25105 -10.24978 -10.24204
  Beta  occ. eigenvalues --  -10.23638 -10.23066 -10.23040 -10.22834 -10.22079
  Beta  occ. eigenvalues --  -10.20576 -10.20463 -10.20408  -8.09597  -7.99014
  Beta  occ. eigenvalues --   -6.11585  -6.11256  -6.11039  -6.01243  -6.00797
  Beta  occ. eigenvalues --   -5.99999  -1.24600  -1.21837  -1.16953  -1.14654
  Beta  occ. eigenvalues --   -1.13193  -1.07242  -1.04343  -1.03174  -1.02878
  Beta  occ. eigenvalues --   -0.98558  -0.98127  -0.98028  -0.97228  -0.95990
  Beta  occ. eigenvalues --   -0.94948  -0.91731  -0.88934  -0.87168  -0.84428
  Beta  occ. eigenvalues --   -0.82712  -0.81512  -0.81041  -0.78050  -0.77311
  Beta  occ. eigenvalues --   -0.76730  -0.76238  -0.75051  -0.74744  -0.74337
  Beta  occ. eigenvalues --   -0.73856  -0.72480  -0.71372  -0.70893  -0.70099
  Beta  occ. eigenvalues --   -0.69242  -0.68938  -0.68537  -0.68071  -0.67719
  Beta  occ. eigenvalues --   -0.67337  -0.66656  -0.66424  -0.66201  -0.65993
  Beta  occ. eigenvalues --   -0.65696  -0.64334  -0.63795  -0.62974  -0.61727
  Beta  occ. eigenvalues --   -0.61695  -0.59838  -0.58085  -0.57298  -0.56760
  Beta  occ. eigenvalues --   -0.53758  -0.53454  -0.50607  -0.50209
  Beta virt. eigenvalues --   -0.35338  -0.25232  -0.24441  -0.21580  -0.19551
  Beta virt. eigenvalues --   -0.18920  -0.18096  -0.15483  -0.15022  -0.14141
  Beta virt. eigenvalues --   -0.13506  -0.12237  -0.10181  -0.09676  -0.09055

 Mulliken charges and spin densities:
               1          2
     1  C   -0.025009  -0.028039
     2  C   -0.240764   0.057221
     3  S   -0.008327   0.016428
     4  C   -0.022365  -0.008382
     5  C   -0.225471  -0.171710
     6  C    0.294753   0.752424
     7  C   -0.038908   0.059726
     8  C   -0.000274   0.003338
     9  H    0.176707  -0.006744
    10  C   -0.087874   0.038710
    11  C   -0.210277  -0.011751
    12  C   -0.009320   0.056430
    13  C    0.040806  -0.052493
    14  H    0.191101   0.006846
    15  H    0.193031   0.025307
    16  H    0.182629   0.004305
    17  C   -0.126967   0.012013
    18  H    0.182455   0.000641
    19  H    0.146413   0.002984
    20  H    0.174546  -0.002787
    21  H    0.162845  -0.000498
    22  H    0.167693  -0.001063
    23  S    0.308249   0.244654
    24  C   -0.466942   0.015044
    25  C    0.070587  -0.002702
    26  C    0.052649  -0.001757
    27  N    0.028667  -0.004011
    28  N    0.024981  -0.003712
    29  C   -0.243906   0.000217
    30  H    0.187982  -0.000203
    31  H    0.137713   0.000108
    32  H    0.185416  -0.000187
    33  C   -0.248386   0.000154
    34  H    0.182317  -0.000176
    35  H    0.191873  -0.000189
    36  H    0.145275  -0.000005
    37  C   -0.245440   0.000241
    38  H    0.184216  -0.000168
    39  H    0.131261   0.000167
    40  H    0.185546  -0.000217
    41  C   -0.250856   0.000167
    42  H    0.180100  -0.000169
    43  H    0.192034  -0.000164
    44  H    0.149238   0.000000
 Sum of Mulliken charges =   2.00000   1.00000

 Dipole moment (field-independent basis, Debye):
    X=             -6.3330    Y=             -1.1725    Z=              1.5009  Tot=              6.6132
 Quadrupole moment (field-independent basis, Debye-Ang):
   XX=             41.7809   YY=            -89.8770   ZZ=           -129.7473
   XY=             -8.8784   XZ=              6.2389   YZ=              4.9514

 Normal termination of Gaussian 16 at Tue Jan 26 20:50:49 2021.
