 Gaussian 16, Revision A.03,
 Gaussian 16:  EM64L-G16RevA.03 25-Dec-2016

 ----------------------------------------------------------------------
 #P LC-wHPBE/TZVP iop(3/107=0328100000, 3/108=0328100000) scf=(conver=6
 ,fermi,ndamp=35,noincfock,novaracc,vshift=500,xqc)
 ----------------------------------------------------------------------

 -------------
 H21 C19 S2 N2
 -------------
 Symbolic Z-matrix:
 Charge =  2 Multiplicity = 2

                         Standard orientation:
 ---------------------------------------------------------------------
 Center     Atomic      Atomic             Coordinates (Angstroms)
 Number     Number       Type             X           Y           Z
 ---------------------------------------------------------------------
      1          6           0        5.141333    0.341453   -1.428653
      2          6           0        4.246330    0.793113   -0.457920
      3         16           0        3.527427    2.438238   -0.612926
      4          6           0        3.852580   -0.085202    0.570411
      5          6           0        0.863708   -0.787434    0.770822
      6          6           0        1.152588   -1.949541    0.292605
      7          6           0        5.641454   -0.963707   -1.380320
      8          6           0        4.337968   -1.397272    0.611701
      9          1           0        2.805747   -0.536686    2.620663
     10          6           0       -0.327590   -0.104924    0.757243
     11          6           0        0.161049   -2.709273   -0.336618
     12          6           0       -1.110551   -2.125038   -0.416532
     13          6           0       -1.366563   -0.836811    0.116144
     14          1           0       -0.506361    0.876389    1.203135
     15          1           0        0.333628   -3.701573   -0.760587
     16          1           0       -1.915541   -2.656529   -0.930176
     17          6           0        5.242141   -1.827604   -0.363151
     18          1           0        5.450891    1.025420   -2.219360
     19          1           0        4.159480    2.990100    0.460876
     20          1           0        6.347910   -1.298886   -2.140548
     21          1           0        4.022912   -2.077842    1.402557
     22          1           0        5.625918   -2.847650   -0.323690
     23         16           0        2.641644    0.489998    1.741439
     24          6           0       -2.680648   -0.257498    0.003764
     25          6           0       -4.054270   -0.413992   -0.132503
     26          6           0       -3.489875    0.870167   -0.052158
     27          7           0       -5.099740   -1.211802   -0.243141
     28          7           0       -3.607387    2.185094   -0.049886
     29          6           0       -4.958870   -2.662960   -0.086881
     30          1           0       -5.249390   -3.175063   -1.015650
     31          1           0       -3.921906   -2.911213    0.159186
     32          1           0       -5.607057   -3.011636    0.730112
     33          6           0       -6.456302   -0.708508   -0.463149
     34          1           0       -6.932296   -1.289768   -1.265044
     35          1           0       -7.062340   -0.804638    0.450448
     36          1           0       -6.424137    0.340187   -0.774131
     37          6           0       -2.422516    3.047015   -0.104701
     38          1           0       -2.374233    3.683098    0.791036
     39          1           0       -1.518165    2.434104   -0.168534
     40          1           0       -2.472812    3.689712   -0.995626
     41          6           0       -4.905946    2.859820   -0.071613
     42          1           0       -4.903422    3.671788    0.668659
     43          1           0       -5.109136    3.288120   -1.064906
     44          1           0       -5.701050    2.156915    0.195603
 ---------------------------------------------------------------------

 SCF Done:  E(ULC-wHPBE) =  -1641.13231189     A.U. after   33 cycles
 SCF Done:  E(ULC-wHPBE) =  -1641.13231341     a.u. after    2 cycles

 The electronic state is 2-A.
 Alpha  occ. eigenvalues --  -88.60710 -88.47847 -14.46160 -14.45982 -10.40368
 Alpha  occ. eigenvalues --  -10.40314 -10.38456 -10.36915 -10.36330 -10.35975
 Alpha  occ. eigenvalues --  -10.35432 -10.35053 -10.34245 -10.33726 -10.33662
 Alpha  occ. eigenvalues --  -10.32469 -10.31917 -10.31834 -10.31635 -10.30814
 Alpha  occ. eigenvalues --  -10.28904 -10.28851 -10.28783  -8.19532  -8.07225
 Alpha  occ. eigenvalues --   -6.21173  -6.21119  -6.20628  -6.09183  -6.08696
 Alpha  occ. eigenvalues --   -6.07865  -1.34105  -1.30861  -1.26217  -1.24803
 Alpha  occ. eigenvalues --   -1.22607  -1.16503  -1.14199  -1.12162  -1.11467
 Alpha  occ. eigenvalues --   -1.06940  -1.06428  -1.06330  -1.05301  -1.03990
 Alpha  occ. eigenvalues --   -1.02653  -1.00541  -0.97097  -0.94381  -0.91401
 Alpha  occ. eigenvalues --   -0.90070  -0.88417  -0.87896  -0.84523  -0.84319
 Alpha  occ. eigenvalues --   -0.83759  -0.83229  -0.81723  -0.81245  -0.80949
 Alpha  occ. eigenvalues --   -0.80497  -0.78668  -0.78457  -0.77406  -0.76791
 Alpha  occ. eigenvalues --   -0.75247  -0.74755  -0.74303  -0.74007  -0.73944
 Alpha  occ. eigenvalues --   -0.73306  -0.72546  -0.72316  -0.72057  -0.71707
 Alpha  occ. eigenvalues --   -0.71425  -0.69967  -0.69521  -0.68699  -0.67491
 Alpha  occ. eigenvalues --   -0.66778  -0.64435  -0.63209  -0.62907  -0.62379
 Alpha  occ. eigenvalues --   -0.61150  -0.57479  -0.56797  -0.54528  -0.54160
 Alpha virt. eigenvalues --   -0.25294  -0.23028  -0.19094  -0.16746  -0.16058
 Alpha virt. eigenvalues --   -0.15100  -0.12170  -0.12135  -0.11156  -0.10756
 Alpha virt. eigenvalues --   -0.08630  -0.07513  -0.06271  -0.05898  -0.05457

  Beta  occ. eigenvalues --  -88.60546 -88.47847 -14.46174 -14.45997 -10.40377
  Beta  occ. eigenvalues --  -10.40323 -10.38758 -10.36311 -10.36084 -10.35524
  Beta  occ. eigenvalues --  -10.35329 -10.35107 -10.34355 -10.33579 -10.33575
  Beta  occ. eigenvalues --  -10.32468 -10.31917 -10.31833 -10.31635 -10.30770
  Beta  occ. eigenvalues --  -10.28919 -10.28839 -10.28765  -8.19360  -8.07224
  Beta  occ. eigenvalues --   -6.21053  -6.20731  -6.20461  -6.09185  -6.08696
  Beta  occ. eigenvalues --   -6.07861  -1.34127  -1.30883  -1.26121  -1.24381
  Beta  occ. eigenvalues --   -1.22325  -1.16032  -1.13393  -1.12085  -1.11374
  Beta  occ. eigenvalues --   -1.06923  -1.06349  -1.06089  -1.05305  -1.03914
  Beta  occ. eigenvalues --   -1.02601  -0.99719  -0.96858  -0.94313  -0.91331
  Beta  occ. eigenvalues --   -0.90068  -0.88398  -0.87823  -0.84324  -0.84138
  Beta  occ. eigenvalues --   -0.83516  -0.83124  -0.81403  -0.81009  -0.80719
  Beta  occ. eigenvalues --   -0.80506  -0.78371  -0.77513  -0.77025  -0.76511
  Beta  occ. eigenvalues --   -0.75160  -0.74658  -0.74271  -0.73868  -0.73795
  Beta  occ. eigenvalues --   -0.72960  -0.72525  -0.72175  -0.72000  -0.71682
  Beta  occ. eigenvalues --   -0.71352  -0.69940  -0.69398  -0.67886  -0.66702
  Beta  occ. eigenvalues --   -0.66379  -0.64355  -0.62853  -0.62447  -0.61215
  Beta  occ. eigenvalues --   -0.57474  -0.56812  -0.54531  -0.53909
  Beta virt. eigenvalues --   -0.32831  -0.22288  -0.21682  -0.19227  -0.16375
  Beta virt. eigenvalues --   -0.15657  -0.14767  -0.12236  -0.11831  -0.10887
  Beta virt. eigenvalues --   -0.10706  -0.08576  -0.07476  -0.06185  -0.05785

 Mulliken charges and spin densities:
               1          2
     1  C   -0.037777  -0.044307
     2  C   -0.249994   0.060170
     3  S   -0.018868  -0.000258
     4  C   -0.053302  -0.040421
     5  C   -0.228241  -0.280163
     6  C    0.282449   0.869033
     7  C   -0.064023   0.069986
     8  C   -0.022097   0.034692
     9  H    0.181967  -0.009433
    10  C   -0.092551   0.074240
    11  C   -0.203985  -0.058448
    12  C   -0.032052   0.092766
    13  C    0.048785  -0.091969
    14  H    0.215397   0.003671
    15  H    0.211474   0.027638
    16  H    0.204640   0.001908
    17  C   -0.145748  -0.025200
    18  H    0.201033   0.001565
    19  H    0.142362   0.002756
    20  H    0.190395  -0.003100
    21  H    0.182131  -0.002328
    22  H    0.182959   0.000705
    23  S    0.345559   0.315207
    24  C   -0.449764   0.025387
    25  C    0.075575  -0.005507
    26  C    0.057616  -0.004712
    27  N    0.001596  -0.006806
    28  N   -0.002201  -0.006495
    29  C   -0.235895   0.000532
    30  H    0.189036  -0.000322
    31  H    0.131683   0.000024
    32  H    0.184789  -0.000334
    33  C   -0.240513   0.000344
    34  H    0.181491  -0.000274
    35  H    0.192867  -0.000296
    36  H    0.140327  -0.000006
    37  C   -0.236520   0.000576
    38  H    0.185372  -0.000295
    39  H    0.124988   0.000007
    40  H    0.185408  -0.000350
    41  C   -0.243177   0.000363
    42  H    0.179267  -0.000264
    43  H    0.193281  -0.000280
    44  H    0.144262  -0.000004
 Sum of Mulliken charges =   2.00000   1.00000

 Dipole moment (field-independent basis, Debye):
    X=             -6.9418    Y=             -1.5445    Z=              1.9067  Tot=              7.3627
 Quadrupole moment (field-independent basis, Debye-Ang):
   XX=             37.8987   YY=            -89.9363   ZZ=           -129.0054
   XY=             -9.3408   XZ=              7.5122   YZ=              5.2241

 Normal termination of Gaussian 16 at Tue Jan 26 16:18:22 2021.
