 Gaussian 16, Revision A.03,
 Gaussian 16:  EM64L-G16RevA.03 25-Dec-2016

 ----------------------------------------------------------------------
 #P LC-wHPBE/TZVP iop(3/107=0175300000, 3/108=0175300000) scf=(conver=6
 ,fermi,ndamp=35,noincfock,novaracc,vshift=500,xqc)
 ----------------------------------------------------------------------

 -------------
 H21 C19 S2 N2
 -------------
 Symbolic Z-matrix:
 Charge =  2 Multiplicity = 2

                         Standard orientation:
 ---------------------------------------------------------------------
 Center     Atomic      Atomic             Coordinates (Angstroms)
 Number     Number       Type             X           Y           Z
 ---------------------------------------------------------------------
      1          6           0        5.141333    0.341453   -1.428653
      2          6           0        4.246330    0.793113   -0.457920
      3         16           0        3.527427    2.438238   -0.612926
      4          6           0        3.852580   -0.085202    0.570411
      5          6           0        0.863708   -0.787434    0.770822
      6          6           0        1.152588   -1.949541    0.292605
      7          6           0        5.641454   -0.963707   -1.380320
      8          6           0        4.337968   -1.397272    0.611701
      9          1           0        2.805747   -0.536686    2.620663
     10          6           0       -0.327590   -0.104924    0.757243
     11          6           0        0.161049   -2.709273   -0.336618
     12          6           0       -1.110551   -2.125038   -0.416532
     13          6           0       -1.366563   -0.836811    0.116144
     14          1           0       -0.506361    0.876389    1.203135
     15          1           0        0.333628   -3.701573   -0.760587
     16          1           0       -1.915541   -2.656529   -0.930176
     17          6           0        5.242141   -1.827604   -0.363151
     18          1           0        5.450891    1.025420   -2.219360
     19          1           0        4.159480    2.990100    0.460876
     20          1           0        6.347910   -1.298886   -2.140548
     21          1           0        4.022912   -2.077842    1.402557
     22          1           0        5.625918   -2.847650   -0.323690
     23         16           0        2.641644    0.489998    1.741439
     24          6           0       -2.680648   -0.257498    0.003764
     25          6           0       -4.054270   -0.413992   -0.132503
     26          6           0       -3.489875    0.870167   -0.052158
     27          7           0       -5.099740   -1.211802   -0.243141
     28          7           0       -3.607387    2.185094   -0.049886
     29          6           0       -4.958870   -2.662960   -0.086881
     30          1           0       -5.249390   -3.175063   -1.015650
     31          1           0       -3.921906   -2.911213    0.159186
     32          1           0       -5.607057   -3.011636    0.730112
     33          6           0       -6.456302   -0.708508   -0.463149
     34          1           0       -6.932296   -1.289768   -1.265044
     35          1           0       -7.062340   -0.804638    0.450448
     36          1           0       -6.424137    0.340187   -0.774131
     37          6           0       -2.422516    3.047015   -0.104701
     38          1           0       -2.374233    3.683098    0.791036
     39          1           0       -1.518165    2.434104   -0.168534
     40          1           0       -2.472812    3.689712   -0.995626
     41          6           0       -4.905946    2.859820   -0.071613
     42          1           0       -4.903422    3.671788    0.668659
     43          1           0       -5.109136    3.288120   -1.064906
     44          1           0       -5.701050    2.156915    0.195603
 ---------------------------------------------------------------------

 SCF Done:  E(ULC-wHPBE) =  -1640.96314980     A.U. after   33 cycles
 SCF Done:  E(ULC-wHPBE) =  -1640.96315750     a.u. after    2 cycles

 The electronic state is 2-A.
 Alpha  occ. eigenvalues --  -88.51316 -88.40050 -14.37845 -14.37661 -10.30796
 Alpha  occ. eigenvalues --  -10.30740 -10.28432 -10.27280 -10.27160 -10.26761
 Alpha  occ. eigenvalues --  -10.26541 -10.26120 -10.25395 -10.25188 -10.24572
 Alpha  occ. eigenvalues --  -10.23874 -10.23303 -10.23274 -10.23069 -10.22309
 Alpha  occ. eigenvalues --  -10.20804 -10.20698 -10.20632  -8.09991  -7.99213
 Alpha  occ. eigenvalues --   -6.11928  -6.11809  -6.11438  -6.01434  -6.00988
 Alpha  occ. eigenvalues --   -6.00206  -1.24844  -1.22073  -1.17228  -1.15379
 Alpha  occ. eigenvalues --   -1.13646  -1.07839  -1.05236  -1.03508  -1.03246
 Alpha  occ. eigenvalues --   -0.98808  -0.98554  -0.98277  -0.97461  -0.96262
 Alpha  occ. eigenvalues --   -0.95254  -0.92604  -0.89407  -0.87444  -0.84730
 Alpha  occ. eigenvalues --   -0.82976  -0.81745  -0.81289  -0.78319  -0.77786
 Alpha  occ. eigenvalues --   -0.77149  -0.76452  -0.75358  -0.75152  -0.74891
 Alpha  occ. eigenvalues --   -0.74063  -0.72744  -0.72350  -0.71402  -0.70410
 Alpha  occ. eigenvalues --   -0.69538  -0.69172  -0.68802  -0.68334  -0.68066
 Alpha  occ. eigenvalues --   -0.67801  -0.66871  -0.66732  -0.66396  -0.66202
 Alpha  occ. eigenvalues --   -0.65961  -0.64554  -0.64075  -0.63545  -0.62559
 Alpha  occ. eigenvalues --   -0.61948  -0.60062  -0.58621  -0.57478  -0.57322
 Alpha  occ. eigenvalues --   -0.56893  -0.53858  -0.53497  -0.50820  -0.50517
 Alpha virt. eigenvalues --   -0.27701  -0.24884  -0.21417  -0.19676  -0.19136
 Alpha virt. eigenvalues --   -0.18220  -0.15328  -0.15190  -0.14312  -0.13422
 Alpha virt. eigenvalues --   -0.12160  -0.10115  -0.09633  -0.09029  -0.08390

  Beta  occ. eigenvalues --  -88.51188 -88.40043 -14.37853 -14.37670 -10.30801
  Beta  occ. eigenvalues --  -10.30746 -10.28598 -10.27152 -10.26822 -10.26558
  Beta  occ. eigenvalues --  -10.26055 -10.26053 -10.25313 -10.25235 -10.24461
  Beta  occ. eigenvalues --  -10.23873 -10.23303 -10.23274 -10.23069 -10.22300
  Beta  occ. eigenvalues --  -10.20781 -10.20671 -10.20616  -8.09860  -7.99205
  Beta  occ. eigenvalues --   -6.11843  -6.11515  -6.11296  -6.01431  -6.00984
  Beta  occ. eigenvalues --   -6.00184  -1.24857  -1.22085  -1.17207  -1.14927
  Beta  occ. eigenvalues --   -1.13433  -1.07481  -1.04606  -1.03405  -1.03128
  Beta  occ. eigenvalues --   -0.98797  -0.98350  -0.98264  -0.97464  -0.96223
  Beta  occ. eigenvalues --   -0.95154  -0.91974  -0.89177  -0.87372  -0.84627
  Beta  occ. eigenvalues --   -0.82944  -0.81726  -0.81253  -0.78241  -0.77527
  Beta  occ. eigenvalues --   -0.76944  -0.76457  -0.75250  -0.74938  -0.74546
  Beta  occ. eigenvalues --   -0.74065  -0.72659  -0.71574  -0.71083  -0.70316
  Beta  occ. eigenvalues --   -0.69428  -0.69113  -0.68720  -0.68261  -0.67926
  Beta  occ. eigenvalues --   -0.67519  -0.66846  -0.66611  -0.66390  -0.66179
  Beta  occ. eigenvalues --   -0.65884  -0.64515  -0.63979  -0.63130  -0.61883
  Beta  occ. eigenvalues --   -0.61851  -0.59979  -0.58261  -0.57473  -0.56930
  Beta  occ. eigenvalues --   -0.53881  -0.53574  -0.50734  -0.50342
  Beta virt. eigenvalues --   -0.35249  -0.25110  -0.24356  -0.21484  -0.19425
  Beta virt. eigenvalues --   -0.18784  -0.17960  -0.15365  -0.14899  -0.14019
  Beta virt. eigenvalues --   -0.13394  -0.12085  -0.10071  -0.09524  -0.08942

 Mulliken charges and spin densities:
               1          2
     1  C   -0.025472  -0.028232
     2  C   -0.240895   0.056812
     3  S   -0.008962   0.015109
     4  C   -0.023610  -0.009276
     5  C   -0.225382  -0.173975
     6  C    0.294865   0.756322
     7  C   -0.039349   0.059635
     8  C   -0.000415   0.004271
     9  H    0.176822  -0.006804
    10  C   -0.087855   0.039290
    11  C   -0.210051  -0.012625
    12  C   -0.009507   0.057098
    13  C    0.040592  -0.053221
    14  H    0.191605   0.006800
    15  H    0.193445   0.025417
    16  H    0.183053   0.004247
    17  C   -0.127557   0.010635
    18  H    0.182730   0.000664
    19  H    0.146146   0.002964
    20  H    0.174711  -0.002779
    21  H    0.163083  -0.000552
    22  H    0.167811  -0.000996
    23  S    0.309796   0.246716
    24  C   -0.467006   0.015247
    25  C    0.070589  -0.002733
    26  C    0.052668  -0.001792
    27  N    0.028466  -0.004056
    28  N    0.024779  -0.003756
    29  C   -0.243272   0.000223
    30  H    0.187878  -0.000205
    31  H    0.137414   0.000105
    32  H    0.185285  -0.000190
    33  C   -0.247797   0.000157
    34  H    0.182184  -0.000177
    35  H    0.191762  -0.000191
    36  H    0.145057  -0.000005
    37  C   -0.244785   0.000248
    38  H    0.184116  -0.000170
    39  H    0.130984   0.000161
    40  H    0.185433  -0.000219
    41  C   -0.250270   0.000170
    42  H    0.179969  -0.000170
    43  H    0.191932  -0.000166
    44  H    0.149012  -0.000000
 Sum of Mulliken charges =   2.00000   1.00000

 Dipole moment (field-independent basis, Debye):
    X=             -6.3691    Y=             -1.1922    Z=              1.5177  Tot=              6.6551
 Quadrupole moment (field-independent basis, Debye-Ang):
   XX=             41.6012   YY=            -89.8873   ZZ=           -129.7249
   XY=             -8.9060   XZ=              6.2969   YZ=              4.9650

 Normal termination of Gaussian 16 at Tue Jan 26 19:03:51 2021.
