 Gaussian 16, Revision A.03,
 Gaussian 16:  EM64L-G16RevA.03 25-Dec-2016

 ----------------------------------------------------------------------
 #P LC-wHPBE/TZVP iop(3/107=0328100000, 3/108=0328100000) scf=(conver=6
 ,fermi,ndamp=35,noincfock,novaracc,vshift=500,xqc)
 ----------------------------------------------------------------------

 -------------
 H21 C19 S2 N2
 -------------
 Symbolic Z-matrix:
 Charge =  1 Multiplicity = 1

                         Standard orientation:
 ---------------------------------------------------------------------
 Center     Atomic      Atomic             Coordinates (Angstroms)
 Number     Number       Type             X           Y           Z
 ---------------------------------------------------------------------
      1          6           0        5.141333    0.341453   -1.428653
      2          6           0        4.246330    0.793113   -0.457920
      3         16           0        3.527427    2.438238   -0.612926
      4          6           0        3.852580   -0.085202    0.570411
      5          6           0        0.863708   -0.787434    0.770822
      6          6           0        1.152588   -1.949541    0.292605
      7          6           0        5.641454   -0.963707   -1.380320
      8          6           0        4.337968   -1.397272    0.611701
      9          1           0        2.805747   -0.536686    2.620663
     10          6           0       -0.327590   -0.104924    0.757243
     11          6           0        0.161049   -2.709273   -0.336618
     12          6           0       -1.110551   -2.125038   -0.416532
     13          6           0       -1.366563   -0.836811    0.116144
     14          1           0       -0.506361    0.876389    1.203135
     15          1           0        0.333628   -3.701573   -0.760587
     16          1           0       -1.915541   -2.656529   -0.930176
     17          6           0        5.242141   -1.827604   -0.363151
     18          1           0        5.450891    1.025420   -2.219360
     19          1           0        4.159480    2.990100    0.460876
     20          1           0        6.347910   -1.298886   -2.140548
     21          1           0        4.022912   -2.077842    1.402557
     22          1           0        5.625918   -2.847650   -0.323690
     23         16           0        2.641644    0.489998    1.741439
     24          6           0       -2.680648   -0.257498    0.003764
     25          6           0       -4.054270   -0.413992   -0.132503
     26          6           0       -3.489875    0.870167   -0.052158
     27          7           0       -5.099740   -1.211802   -0.243141
     28          7           0       -3.607387    2.185094   -0.049886
     29          6           0       -4.958870   -2.662960   -0.086881
     30          1           0       -5.249390   -3.175063   -1.015650
     31          1           0       -3.921906   -2.911213    0.159186
     32          1           0       -5.607057   -3.011636    0.730112
     33          6           0       -6.456302   -0.708508   -0.463149
     34          1           0       -6.932296   -1.289768   -1.265044
     35          1           0       -7.062340   -0.804638    0.450448
     36          1           0       -6.424137    0.340187   -0.774131
     37          6           0       -2.422516    3.047015   -0.104701
     38          1           0       -2.374233    3.683098    0.791036
     39          1           0       -1.518165    2.434104   -0.168534
     40          1           0       -2.472812    3.689712   -0.995626
     41          6           0       -4.905946    2.859820   -0.071613
     42          1           0       -4.903422    3.671788    0.668659
     43          1           0       -5.109136    3.288120   -1.064906
     44          1           0       -5.701050    2.156915    0.195603
 ---------------------------------------------------------------------

 SCF Done:  E(RLC-wHPBE) =  -1641.48898495     A.U. after   16 cycles

 The electronic state is 1-A.
 Alpha  occ. eigenvalues --  -88.40479 -88.35734 -14.36244 -14.36238 -10.29946
 Alpha  occ. eigenvalues --  -10.29909 -10.26028 -10.23601 -10.23579 -10.23110
 Alpha  occ. eigenvalues --  -10.23073 -10.21466 -10.21018 -10.20764 -10.20268
 Alpha  occ. eigenvalues --  -10.19742 -10.19044 -10.18630 -10.17115 -10.16403
 Alpha  occ. eigenvalues --  -10.16194 -10.15964 -10.14805  -7.99716  -7.95140
 Alpha  occ. eigenvalues --   -6.01553  -6.01091  -6.00627  -5.97088  -5.96621
 Alpha  occ. eigenvalues --   -5.95773  -1.24221  -1.21371  -1.15745  -1.08795
 Alpha  occ. eigenvalues --   -1.08082  -1.00986  -0.98770  -0.98471  -0.97716
 Alpha  occ. eigenvalues --   -0.97638  -0.96590  -0.95996  -0.94499  -0.92341
 Alpha  occ. eigenvalues --   -0.89777  -0.85031  -0.81989  -0.80889  -0.79145
 Alpha  occ. eigenvalues --   -0.78781  -0.78141  -0.76137  -0.73952  -0.73205
 Alpha  occ. eigenvalues --   -0.72503  -0.71659  -0.70770  -0.68237  -0.67116
 Alpha  occ. eigenvalues --   -0.66920  -0.65785  -0.65722  -0.65016  -0.64728
 Alpha  occ. eigenvalues --   -0.63927  -0.63802  -0.63732  -0.63024  -0.62730
 Alpha  occ. eigenvalues --   -0.61725  -0.61508  -0.61344  -0.60485  -0.59203
 Alpha  occ. eigenvalues --   -0.59123  -0.58148  -0.57617  -0.55207  -0.53469
 Alpha  occ. eigenvalues --   -0.53221  -0.52421  -0.51670  -0.48798  -0.46167
 Alpha  occ. eigenvalues --   -0.45164  -0.43549  -0.42596  -0.42313  -0.38861
 Alpha virt. eigenvalues --   -0.09476  -0.07819  -0.04518  -0.02991  -0.02722
 Alpha virt. eigenvalues --   -0.02277  -0.01732  -0.00811   0.00997   0.01650
 Alpha virt. eigenvalues --    0.02214   0.02514   0.02976   0.03981   0.04257

 Mulliken charges:
               1
     1  C   -0.061708
     2  C   -0.248316
     3  S   -0.077160
     4  C    0.005589
     5  C   -0.190042
     6  C    0.096378
     7  C   -0.091859
     8  C    0.001289
     9  H    0.141309
    10  C   -0.116584
    11  C   -0.262340
    12  C   -0.066496
    13  C    0.073638
    14  H    0.168879
    15  H    0.143755
    16  H    0.161118
    17  C   -0.152092
    18  H    0.163483
    19  H    0.123717
    20  H    0.151575
    21  H    0.153539
    22  H    0.148058
    23  S    0.114311
    24  C   -0.407271
    25  C    0.051766
    26  C    0.039357
    27  N   -0.015584
    28  N   -0.017708
    29  C   -0.236699
    30  H    0.169373
    31  H    0.151737
    32  H    0.163455
    33  C   -0.236716
    34  H    0.165277
    35  H    0.174569
    36  H    0.134969
    37  C   -0.238069
    38  H    0.167845
    39  H    0.152060
    40  H    0.164454
    41  C   -0.239224
    42  H    0.164617
    43  H    0.175176
    44  H    0.136572
 Sum of Mulliken charges =   1.00000

 Dipole moment (field-independent basis, Debye):
    X=            -12.8759    Y=              1.1237    Z=              0.5458  Tot=             12.9364
 Quadrupole moment (field-independent basis, Debye-Ang):
   XX=            -28.1103   YY=           -114.1897   ZZ=           -140.8694
   XY=             -7.1334   XZ=              4.8538   YZ=              3.3884

 Normal termination of Gaussian 16 at Tue Jan 26 15:38:28 2021.
