 Gaussian 16, Revision A.03,
 Gaussian 16:  EM64L-G16RevA.03 25-Dec-2016

 ----------------------------------------------------------------------
 #P LC-wHPBE/TZVP iop(3/107=0172700000, 3/108=0172700000) scf=(conver=6
 ,fermi,ndamp=35,noincfock,novaracc,vshift=500,xqc)
 ----------------------------------------------------------------------

 -------------
 H21 C19 S2 N2
 -------------
 Symbolic Z-matrix:
 Charge =  1 Multiplicity = 1

                         Standard orientation:
 ---------------------------------------------------------------------
 Center     Atomic      Atomic             Coordinates (Angstroms)
 Number     Number       Type             X           Y           Z
 ---------------------------------------------------------------------
      1          6           0        5.141333    0.341453   -1.428653
      2          6           0        4.246330    0.793113   -0.457920
      3         16           0        3.527427    2.438238   -0.612926
      4          6           0        3.852580   -0.085202    0.570411
      5          6           0        0.863708   -0.787434    0.770822
      6          6           0        1.152588   -1.949541    0.292605
      7          6           0        5.641454   -0.963707   -1.380320
      8          6           0        4.337968   -1.397272    0.611701
      9          1           0        2.805747   -0.536686    2.620663
     10          6           0       -0.327590   -0.104924    0.757243
     11          6           0        0.161049   -2.709273   -0.336618
     12          6           0       -1.110551   -2.125038   -0.416532
     13          6           0       -1.366563   -0.836811    0.116144
     14          1           0       -0.506361    0.876389    1.203135
     15          1           0        0.333628   -3.701573   -0.760587
     16          1           0       -1.915541   -2.656529   -0.930176
     17          6           0        5.242141   -1.827604   -0.363151
     18          1           0        5.450891    1.025420   -2.219360
     19          1           0        4.159480    2.990100    0.460876
     20          1           0        6.347910   -1.298886   -2.140548
     21          1           0        4.022912   -2.077842    1.402557
     22          1           0        5.625918   -2.847650   -0.323690
     23         16           0        2.641644    0.489998    1.741439
     24          6           0       -2.680648   -0.257498    0.003764
     25          6           0       -4.054270   -0.413992   -0.132503
     26          6           0       -3.489875    0.870167   -0.052158
     27          7           0       -5.099740   -1.211802   -0.243141
     28          7           0       -3.607387    2.185094   -0.049886
     29          6           0       -4.958870   -2.662960   -0.086881
     30          1           0       -5.249390   -3.175063   -1.015650
     31          1           0       -3.921906   -2.911213    0.159186
     32          1           0       -5.607057   -3.011636    0.730112
     33          6           0       -6.456302   -0.708508   -0.463149
     34          1           0       -6.932296   -1.289768   -1.265044
     35          1           0       -7.062340   -0.804638    0.450448
     36          1           0       -6.424137    0.340187   -0.774131
     37          6           0       -2.422516    3.047015   -0.104701
     38          1           0       -2.374233    3.683098    0.791036
     39          1           0       -1.518165    2.434104   -0.168534
     40          1           0       -2.472812    3.689712   -0.995626
     41          6           0       -4.905946    2.859820   -0.071613
     42          1           0       -4.903422    3.671788    0.668659
     43          1           0       -5.109136    3.288120   -1.064906
     44          1           0       -5.701050    2.156915    0.195603
 ---------------------------------------------------------------------

 SCF Done:  E(RLC-wHPBE) =  -1641.31290446     A.U. after   17 cycles

 The electronic state is 1-A.
 Alpha  occ. eigenvalues --  -88.32102 -88.27388 -14.27757 -14.27751 -10.20240
 Alpha  occ. eigenvalues --  -10.20206 -10.16632 -10.14841 -10.14816 -10.14349
 Alpha  occ. eigenvalues --  -10.14307 -10.12500 -10.12221 -10.11542 -10.11530
 Alpha  occ. eigenvalues --  -10.10210 -10.10077 -10.09745 -10.08466 -10.07763
 Alpha  occ. eigenvalues --  -10.07549 -10.07337 -10.06130  -7.91117  -7.86584
 Alpha  occ. eigenvalues --   -5.93224  -5.92795  -5.92378  -5.88805  -5.88379
 Alpha  occ. eigenvalues --   -5.87554  -1.14825  -1.12402  -1.06816  -0.99535
 Alpha  occ. eigenvalues --   -0.99012  -0.92390  -0.90240  -0.90003  -0.89443
 Alpha  occ. eigenvalues --   -0.89291  -0.88059  -0.87936  -0.86655  -0.84349
 Alpha  occ. eigenvalues --   -0.81965  -0.77401  -0.74551  -0.73689  -0.72369
 Alpha  occ. eigenvalues --   -0.72089  -0.71215  -0.69227  -0.66922  -0.66751
 Alpha  occ. eigenvalues --   -0.66292  -0.65054  -0.64487  -0.61923  -0.61090
 Alpha  occ. eigenvalues --   -0.60642  -0.59825  -0.59605  -0.59090  -0.58877
 Alpha  occ. eigenvalues --   -0.58084  -0.57979  -0.57807  -0.57315  -0.57091
 Alpha  occ. eigenvalues --   -0.56139  -0.55787  -0.55708  -0.54857  -0.53560
 Alpha  occ. eigenvalues --   -0.53210  -0.52743  -0.52243  -0.50044  -0.48494
 Alpha  occ. eigenvalues --   -0.48090  -0.47543  -0.46898  -0.44518  -0.42177
 Alpha  occ. eigenvalues --   -0.41082  -0.39973  -0.39046  -0.38232  -0.35305
 Alpha virt. eigenvalues --   -0.11815  -0.10377  -0.07171  -0.05914  -0.05681
 Alpha virt. eigenvalues --   -0.05408  -0.04393  -0.04178  -0.01680  -0.01474
 Alpha virt. eigenvalues --   -0.01044  -0.00407  -0.00374   0.00868   0.01244

 Mulliken charges:
               1
     1  C   -0.049624
     2  C   -0.235948
     3  S   -0.080438
     4  C    0.022731
     5  C   -0.193816
     6  C    0.129249
     7  C   -0.065247
     8  C    0.020231
     9  H    0.140044
    10  C   -0.116589
    11  C   -0.265128
    12  C   -0.041223
    13  C    0.073765
    14  H    0.143162
    15  H    0.127637
    16  H    0.137981
    17  C   -0.137670
    18  H    0.141609
    19  H    0.123801
    20  H    0.131950
    21  H    0.129443
    22  H    0.129035
    23  S    0.114762
    24  C   -0.436639
    25  C    0.049747
    26  C    0.036640
    27  N    0.012131
    28  N    0.010146
    29  C   -0.244511
    30  H    0.167853
    31  H    0.155828
    32  H    0.163551
    33  C   -0.245455
    34  H    0.165575
    35  H    0.172930
    36  H    0.139811
    37  C   -0.246928
    38  H    0.166162
    39  H    0.157227
    40  H    0.164318
    41  C   -0.247704
    42  H    0.164909
    43  H    0.173411
    44  H    0.141282
 Sum of Mulliken charges =   1.00000

 Dipole moment (field-independent basis, Debye):
    X=            -12.4771    Y=              1.2024    Z=              0.5038  Tot=             12.5451
 Quadrupole moment (field-independent basis, Debye-Ang):
   XX=            -28.2429   YY=           -114.6659   ZZ=           -141.3554
   XY=             -6.8617   XZ=              4.8102   YZ=              3.2424

 Normal termination of Gaussian 16 at Tue Jan 26 23:50:27 2021.
