 Gaussian 16, Revision A.03,
 Gaussian 16:  EM64L-G16RevA.03 25-Dec-2016

 ----------------------------------------------------------------------
 #P LC-wHPBE/TZVP iop(3/107=0172100000, 3/108=0172100000) scf=(conver=6
 ,fermi,ndamp=35,noincfock,novaracc,vshift=500,xqc)
 ----------------------------------------------------------------------

 -------------
 H21 C19 S2 N2
 -------------
 Symbolic Z-matrix:
 Charge =  2 Multiplicity = 2

                         Standard orientation:
 ---------------------------------------------------------------------
 Center     Atomic      Atomic             Coordinates (Angstroms)
 Number     Number       Type             X           Y           Z
 ---------------------------------------------------------------------
      1          6           0        5.141333    0.341453   -1.428653
      2          6           0        4.246330    0.793113   -0.457920
      3         16           0        3.527427    2.438238   -0.612926
      4          6           0        3.852580   -0.085202    0.570411
      5          6           0        0.863708   -0.787434    0.770822
      6          6           0        1.152588   -1.949541    0.292605
      7          6           0        5.641454   -0.963707   -1.380320
      8          6           0        4.337968   -1.397272    0.611701
      9          1           0        2.805747   -0.536686    2.620663
     10          6           0       -0.327590   -0.104924    0.757243
     11          6           0        0.161049   -2.709273   -0.336618
     12          6           0       -1.110551   -2.125038   -0.416532
     13          6           0       -1.366563   -0.836811    0.116144
     14          1           0       -0.506361    0.876389    1.203135
     15          1           0        0.333628   -3.701573   -0.760587
     16          1           0       -1.915541   -2.656529   -0.930176
     17          6           0        5.242141   -1.827604   -0.363151
     18          1           0        5.450891    1.025420   -2.219360
     19          1           0        4.159480    2.990100    0.460876
     20          1           0        6.347910   -1.298886   -2.140548
     21          1           0        4.022912   -2.077842    1.402557
     22          1           0        5.625918   -2.847650   -0.323690
     23         16           0        2.641644    0.489998    1.741439
     24          6           0       -2.680648   -0.257498    0.003764
     25          6           0       -4.054270   -0.413992   -0.132503
     26          6           0       -3.489875    0.870167   -0.052158
     27          7           0       -5.099740   -1.211802   -0.243141
     28          7           0       -3.607387    2.185094   -0.049886
     29          6           0       -4.958870   -2.662960   -0.086881
     30          1           0       -5.249390   -3.175063   -1.015650
     31          1           0       -3.921906   -2.911213    0.159186
     32          1           0       -5.607057   -3.011636    0.730112
     33          6           0       -6.456302   -0.708508   -0.463149
     34          1           0       -6.932296   -1.289768   -1.265044
     35          1           0       -7.062340   -0.804638    0.450448
     36          1           0       -6.424137    0.340187   -0.774131
     37          6           0       -2.422516    3.047015   -0.104701
     38          1           0       -2.374233    3.683098    0.791036
     39          1           0       -1.518165    2.434104   -0.168534
     40          1           0       -2.472812    3.689712   -0.995626
     41          6           0       -4.905946    2.859820   -0.071613
     42          1           0       -4.903422    3.671788    0.668659
     43          1           0       -5.109136    3.288120   -1.064906
     44          1           0       -5.701050    2.156915    0.195603
 ---------------------------------------------------------------------

 SCF Done:  E(ULC-wHPBE) =  -1640.95903716     A.U. after   33 cycles
 SCF Done:  E(ULC-wHPBE) =  -1640.95904514     a.u. after    2 cycles

 The electronic state is 2-A.
 Alpha  occ. eigenvalues --  -88.51111 -88.39904 -14.37664 -14.37479 -10.30592
 Alpha  occ. eigenvalues --  -10.30536 -10.28208 -10.27059 -10.26964 -10.26560
 Alpha  occ. eigenvalues --  -10.26369 -10.25917 -10.25233 -10.24988 -10.24372
 Alpha  occ. eigenvalues --  -10.23690 -10.23118 -10.23091 -10.22886 -10.22135
 Alpha  occ. eigenvalues --  -10.20645 -10.20536 -10.20471  -8.09786  -7.99064
 Alpha  occ. eigenvalues --   -6.11726  -6.11605  -6.11237  -6.01288  -6.00843
 Alpha  occ. eigenvalues --   -6.00062  -1.24643  -1.21879  -1.17029  -1.15164
 Alpha  occ. eigenvalues --   -1.13458  -1.07650  -1.05027  -1.03328  -1.03052
 Alpha  occ. eigenvalues --   -0.98621  -0.98381  -0.98091  -0.97277  -0.96080
 Alpha  occ. eigenvalues --   -0.95095  -0.92410  -0.89216  -0.87286  -0.84576
 Alpha  occ. eigenvalues --   -0.82795  -0.81578  -0.81123  -0.78170  -0.77615
 Alpha  occ. eigenvalues --   -0.76981  -0.76281  -0.75201  -0.74995  -0.74732
 Alpha  occ. eigenvalues --   -0.73899  -0.72605  -0.72184  -0.71249  -0.70238
 Alpha  occ. eigenvalues --   -0.69394  -0.69034  -0.68660  -0.68184  -0.67906
 Alpha  occ. eigenvalues --   -0.67658  -0.66723  -0.66586  -0.66249  -0.66058
 Alpha  occ. eigenvalues --   -0.65815  -0.64413  -0.63931  -0.63414  -0.62429
 Alpha  occ. eigenvalues --   -0.61829  -0.59954  -0.58483  -0.57339  -0.57173
 Alpha  occ. eigenvalues --   -0.56760  -0.53761  -0.53401  -0.50725  -0.50413
 Alpha virt. eigenvalues --   -0.27767  -0.24946  -0.21493  -0.19772  -0.19242
 Alpha virt. eigenvalues --   -0.18324  -0.15421  -0.15284  -0.14407  -0.13509
 Alpha virt. eigenvalues --   -0.12279  -0.10202  -0.09752  -0.09117  -0.08486

  Beta  occ. eigenvalues --  -88.50984 -88.39896 -14.37672 -14.37488 -10.30596
  Beta  occ. eigenvalues --  -10.30542 -10.28372 -10.26956 -10.26620 -10.26386
  Beta  occ. eigenvalues --  -10.25851 -10.25838 -10.25150 -10.25034 -10.24261
  Beta  occ. eigenvalues --  -10.23690 -10.23118 -10.23091 -10.22886 -10.22128
  Beta  occ. eigenvalues --  -10.20621 -10.20509 -10.20454  -8.09655  -7.99056
  Beta  occ. eigenvalues --   -6.11642  -6.11313  -6.11096  -6.01284  -6.00838
  Beta  occ. eigenvalues --   -6.00039  -1.24656  -1.21892  -1.17009  -1.14714
  Beta  occ. eigenvalues --   -1.13246  -1.07294  -1.04401  -1.03225  -1.02933
  Beta  occ. eigenvalues --   -0.98611  -0.98176  -0.98080  -0.97280  -0.96041
  Beta  occ. eigenvalues --   -0.94993  -0.91784  -0.88987  -0.87213  -0.84472
  Beta  occ. eigenvalues --   -0.82763  -0.81559  -0.81088  -0.78092  -0.77359
  Beta  occ. eigenvalues --   -0.76777  -0.76286  -0.75095  -0.74787  -0.74383
  Beta  occ. eigenvalues --   -0.73902  -0.72520  -0.71416  -0.70934  -0.70147
  Beta  occ. eigenvalues --   -0.69283  -0.68976  -0.68577  -0.68113  -0.67765
  Beta  occ. eigenvalues --   -0.67377  -0.66698  -0.66465  -0.66243  -0.66034
  Beta  occ. eigenvalues --   -0.65738  -0.64374  -0.63835  -0.63009  -0.61761
  Beta  occ. eigenvalues --   -0.61730  -0.59869  -0.58124  -0.57337  -0.56798
  Beta  occ. eigenvalues --   -0.53785  -0.53480  -0.50635  -0.50238
  Beta virt. eigenvalues --   -0.35319  -0.25205  -0.24422  -0.21559  -0.19523
  Beta virt. eigenvalues --   -0.18890  -0.18066  -0.15457  -0.14995  -0.14114
  Beta virt. eigenvalues --   -0.13481  -0.12203  -0.10157  -0.09642  -0.09030

 Mulliken charges and spin densities:
               1          2
     1  C   -0.025111  -0.028082
     2  C   -0.240792   0.057130
     3  S   -0.008471   0.016130
     4  C   -0.022639  -0.008579
     5  C   -0.225451  -0.172205
     6  C    0.294781   0.753287
     7  C   -0.039003   0.059706
     8  C   -0.000303   0.003544
     9  H    0.176732  -0.006757
    10  C   -0.087869   0.038836
    11  C   -0.210227  -0.011941
    12  C   -0.009358   0.056576
    13  C    0.040757  -0.052652
    14  H    0.191211   0.006836
    15  H    0.193121   0.025331
    16  H    0.182721   0.004292
    17  C   -0.127097   0.011707
    18  H    0.182514   0.000646
    19  H    0.146354   0.002980
    20  H    0.174581  -0.002785
    21  H    0.162896  -0.000510
    22  H    0.167717  -0.001048
    23  S    0.308592   0.245110
    24  C   -0.466960   0.015089
    25  C    0.070587  -0.002708
    26  C    0.052653  -0.001764
    27  N    0.028626  -0.004021
    28  N    0.024940  -0.003721
    29  C   -0.243766   0.000218
    30  H    0.187959  -0.000204
    31  H    0.137647   0.000107
    32  H    0.185387  -0.000188
    33  C   -0.248255   0.000155
    34  H    0.182288  -0.000176
    35  H    0.191848  -0.000190
    36  H    0.145227  -0.000005
    37  C   -0.245295   0.000243
    38  H    0.184194  -0.000168
    39  H    0.131200   0.000165
    40  H    0.185521  -0.000217
    41  C   -0.250726   0.000167
    42  H    0.180071  -0.000169
    43  H    0.192011  -0.000165
    44  H    0.149188   0.000000
 Sum of Mulliken charges =   2.00000   1.00000

 Dipole moment (field-independent basis, Debye):
    X=             -6.3411    Y=             -1.1769    Z=              1.5046  Tot=              6.6226
 Quadrupole moment (field-independent basis, Debye-Ang):
   XX=             41.7411   YY=            -89.8793   ZZ=           -129.7423
   XY=             -8.8847   XZ=              6.2518   YZ=              4.9545

 Normal termination of Gaussian 16 at Tue Jan 26 21:47:21 2021.
