 Gaussian 16, Revision A.03,
 Gaussian 16:  EM64L-G16RevA.03 25-Dec-2016

 ----------------------------------------------------------------------
 #P LC-wHPBE/TZVP iop(3/107=0115700000, 3/108=0115700000) scf=(conver=6
 ,fermi,ndamp=35,noincfock,novaracc,vshift=500,xqc)
 ----------------------------------------------------------------------

 -------------
 H21 C19 S2 N2
 -------------
 Symbolic Z-matrix:
 Charge =  1 Multiplicity = 1

                         Standard orientation:
 ---------------------------------------------------------------------
 Center     Atomic      Atomic             Coordinates (Angstroms)
 Number     Number       Type             X           Y           Z
 ---------------------------------------------------------------------
      1          6           0        5.141333    0.341453   -1.428653
      2          6           0        4.246330    0.793113   -0.457920
      3         16           0        3.527427    2.438238   -0.612926
      4          6           0        3.852580   -0.085202    0.570411
      5          6           0        0.863708   -0.787434    0.770822
      6          6           0        1.152588   -1.949541    0.292605
      7          6           0        5.641454   -0.963707   -1.380320
      8          6           0        4.337968   -1.397272    0.611701
      9          1           0        2.805747   -0.536686    2.620663
     10          6           0       -0.327590   -0.104924    0.757243
     11          6           0        0.161049   -2.709273   -0.336618
     12          6           0       -1.110551   -2.125038   -0.416532
     13          6           0       -1.366563   -0.836811    0.116144
     14          1           0       -0.506361    0.876389    1.203135
     15          1           0        0.333628   -3.701573   -0.760587
     16          1           0       -1.915541   -2.656529   -0.930176
     17          6           0        5.242141   -1.827604   -0.363151
     18          1           0        5.450891    1.025420   -2.219360
     19          1           0        4.159480    2.990100    0.460876
     20          1           0        6.347910   -1.298886   -2.140548
     21          1           0        4.022912   -2.077842    1.402557
     22          1           0        5.625918   -2.847650   -0.323690
     23         16           0        2.641644    0.489998    1.741439
     24          6           0       -2.680648   -0.257498    0.003764
     25          6           0       -4.054270   -0.413992   -0.132503
     26          6           0       -3.489875    0.870167   -0.052158
     27          7           0       -5.099740   -1.211802   -0.243141
     28          7           0       -3.607387    2.185094   -0.049886
     29          6           0       -4.958870   -2.662960   -0.086881
     30          1           0       -5.249390   -3.175063   -1.015650
     31          1           0       -3.921906   -2.911213    0.159186
     32          1           0       -5.607057   -3.011636    0.730112
     33          6           0       -6.456302   -0.708508   -0.463149
     34          1           0       -6.932296   -1.289768   -1.265044
     35          1           0       -7.062340   -0.804638    0.450448
     36          1           0       -6.424137    0.340187   -0.774131
     37          6           0       -2.422516    3.047015   -0.104701
     38          1           0       -2.374233    3.683098    0.791036
     39          1           0       -1.518165    2.434104   -0.168534
     40          1           0       -2.472812    3.689712   -0.995626
     41          6           0       -4.905946    2.859820   -0.071613
     42          1           0       -4.903422    3.671788    0.668659
     43          1           0       -5.109136    3.288120   -1.064906
     44          1           0       -5.701050    2.156915    0.195603
 ---------------------------------------------------------------------

 SCF Done:  E(RLC-wHPBE) =  -1641.23927921     A.U. after   17 cycles

 The electronic state is 1-A.
 Alpha  occ. eigenvalues --  -88.29062 -88.24344 -14.24543 -14.24537 -10.16708
 Alpha  occ. eigenvalues --  -10.16675 -10.13179 -10.11599 -10.11574 -10.11108
 Alpha  occ. eigenvalues --  -10.11064 -10.09233 -10.09006 -10.08356 -10.08181
 Alpha  occ. eigenvalues --  -10.06807 -10.06768 -10.06496 -10.05303 -10.04605
 Alpha  occ. eigenvalues --  -10.04381 -10.04175 -10.02950  -7.88028  -7.83503
 Alpha  occ. eigenvalues --   -5.90170  -5.89749  -5.89354  -5.85761  -5.85345
 Alpha  occ. eigenvalues --   -5.84528  -1.11343  -1.09010  -1.03368  -0.96119
 Alpha  occ. eigenvalues --   -0.95640  -0.89091  -0.86945  -0.86676  -0.86131
 Alpha  occ. eigenvalues --   -0.85965  -0.84747  -0.84610  -0.83415  -0.81154
 Alpha  occ. eigenvalues --   -0.78797  -0.74211  -0.71395  -0.70630  -0.69346
 Alpha  occ. eigenvalues --   -0.69082  -0.68214  -0.66151  -0.63819  -0.63785
 Alpha  occ. eigenvalues --   -0.63385  -0.62054  -0.61588  -0.59025  -0.58282
 Alpha  occ. eigenvalues --   -0.57746  -0.56988  -0.56636  -0.56271  -0.56117
 Alpha  occ. eigenvalues --   -0.55300  -0.55204  -0.55020  -0.54585  -0.54374
 Alpha  occ. eigenvalues --   -0.53447  -0.53138  -0.52949  -0.52128  -0.50817
 Alpha  occ. eigenvalues --   -0.50353  -0.50078  -0.49598  -0.47442  -0.46027
 Alpha  occ. eigenvalues --   -0.45474  -0.45082  -0.44409  -0.42110  -0.39856
 Alpha  occ. eigenvalues --   -0.38801  -0.37852  -0.37064  -0.35930  -0.33275
 Alpha virt. eigenvalues --   -0.13484  -0.12158  -0.09101  -0.07929  -0.07666
 Alpha virt. eigenvalues --   -0.07402  -0.06308  -0.06277  -0.03734  -0.03397
 Alpha virt. eigenvalues --   -0.03158  -0.02525  -0.02342  -0.01171  -0.00702

 Mulliken charges:
               1
     1  C   -0.043692
     2  C   -0.234376
     3  S   -0.082880
     4  C    0.032239
     5  C   -0.203104
     6  C    0.140867
     7  C   -0.062398
     8  C    0.016628
     9  H    0.139953
    10  C   -0.115819
    11  C   -0.267040
    12  C   -0.037568
    13  C    0.077755
    14  H    0.138227
    15  H    0.126351
    16  H    0.134036
    17  C   -0.133824
    18  H    0.138346
    19  H    0.124605
    20  H    0.129964
    21  H    0.125840
    22  H    0.127514
    23  S    0.113016
    24  C   -0.435754
    25  C    0.051512
    26  C    0.037734
    27  N    0.012255
    28  N    0.010393
    29  C   -0.254383
    30  H    0.169984
    31  H    0.158908
    32  H    0.165907
    33  C   -0.255014
    34  H    0.167811
    35  H    0.175026
    36  H    0.142937
    37  C   -0.257084
    38  H    0.168225
    39  H    0.160545
    40  H    0.166603
    41  C   -0.257196
    42  H    0.167127
    43  H    0.175469
    44  H    0.144353
 Sum of Mulliken charges =   1.00000

 Dipole moment (field-independent basis, Debye):
    X=            -12.3119    Y=              1.2365    Z=              0.4794  Tot=             12.3831
 Quadrupole moment (field-independent basis, Debye-Ang):
   XX=            -28.2205   YY=           -114.7682   ZZ=           -141.5335
   XY=             -6.7447   XZ=              4.7446   YZ=              3.1871

 Normal termination of Gaussian 16 at Tue Jan 26 17:25:49 2021.
