 Gaussian 16, Revision A.03,
 Gaussian 16:  EM64L-G16RevA.03 25-Dec-2016

 ----------------------------------------------------------------------
 #P LC-wHPBE/TZVP iop(3/107=0172700000, 3/108=0172700000) scf=(conver=6
 ,fermi,ndamp=35,noincfock,novaracc,vshift=500,xqc)
 ----------------------------------------------------------------------

 -------------
 H21 C19 S2 N2
 -------------
 Symbolic Z-matrix:
 Charge =  2 Multiplicity = 2

                         Standard orientation:
 ---------------------------------------------------------------------
 Center     Atomic      Atomic             Coordinates (Angstroms)
 Number     Number       Type             X           Y           Z
 ---------------------------------------------------------------------
      1          6           0        5.141333    0.341453   -1.428653
      2          6           0        4.246330    0.793113   -0.457920
      3         16           0        3.527427    2.438238   -0.612926
      4          6           0        3.852580   -0.085202    0.570411
      5          6           0        0.863708   -0.787434    0.770822
      6          6           0        1.152588   -1.949541    0.292605
      7          6           0        5.641454   -0.963707   -1.380320
      8          6           0        4.337968   -1.397272    0.611701
      9          1           0        2.805747   -0.536686    2.620663
     10          6           0       -0.327590   -0.104924    0.757243
     11          6           0        0.161049   -2.709273   -0.336618
     12          6           0       -1.110551   -2.125038   -0.416532
     13          6           0       -1.366563   -0.836811    0.116144
     14          1           0       -0.506361    0.876389    1.203135
     15          1           0        0.333628   -3.701573   -0.760587
     16          1           0       -1.915541   -2.656529   -0.930176
     17          6           0        5.242141   -1.827604   -0.363151
     18          1           0        5.450891    1.025420   -2.219360
     19          1           0        4.159480    2.990100    0.460876
     20          1           0        6.347910   -1.298886   -2.140548
     21          1           0        4.022912   -2.077842    1.402557
     22          1           0        5.625918   -2.847650   -0.323690
     23         16           0        2.641644    0.489998    1.741439
     24          6           0       -2.680648   -0.257498    0.003764
     25          6           0       -4.054270   -0.413992   -0.132503
     26          6           0       -3.489875    0.870167   -0.052158
     27          7           0       -5.099740   -1.211802   -0.243141
     28          7           0       -3.607387    2.185094   -0.049886
     29          6           0       -4.958870   -2.662960   -0.086881
     30          1           0       -5.249390   -3.175063   -1.015650
     31          1           0       -3.921906   -2.911213    0.159186
     32          1           0       -5.607057   -3.011636    0.730112
     33          6           0       -6.456302   -0.708508   -0.463149
     34          1           0       -6.932296   -1.289768   -1.265044
     35          1           0       -7.062340   -0.804638    0.450448
     36          1           0       -6.424137    0.340187   -0.774131
     37          6           0       -2.422516    3.047015   -0.104701
     38          1           0       -2.374233    3.683098    0.791036
     39          1           0       -1.518165    2.434104   -0.168534
     40          1           0       -2.472812    3.689712   -0.995626
     41          6           0       -4.905946    2.859820   -0.071613
     42          1           0       -4.903422    3.671788    0.668659
     43          1           0       -5.109136    3.288120   -1.064906
     44          1           0       -5.701050    2.156915    0.195603
 ---------------------------------------------------------------------

 SCF Done:  E(ULC-wHPBE) =  -1640.95980835     A.U. after   33 cycles
 SCF Done:  E(ULC-wHPBE) =  -1640.95981626     a.u. after    2 cycles

 The electronic state is 2-A.
 Alpha  occ. eigenvalues --  -88.51149 -88.39931 -14.37698 -14.37513 -10.30630
 Alpha  occ. eigenvalues --  -10.30574 -10.28250 -10.27100 -10.27001 -10.26598
 Alpha  occ. eigenvalues --  -10.26401 -10.25955 -10.25263 -10.25026 -10.24409
 Alpha  occ. eigenvalues --  -10.23725 -10.23153 -10.23126 -10.22920 -10.22168
 Alpha  occ. eigenvalues --  -10.20675 -10.20566 -10.20501  -8.09824  -7.99092
 Alpha  occ. eigenvalues --   -6.11764  -6.11643  -6.11274  -6.01315  -6.00870
 Alpha  occ. eigenvalues --   -6.00089  -1.24681  -1.21916  -1.17067  -1.15204
 Alpha  occ. eigenvalues --   -1.13493  -1.07685  -1.05066  -1.03362  -1.03088
 Alpha  occ. eigenvalues --   -0.98656  -0.98413  -0.98126  -0.97311  -0.96114
 Alpha  occ. eigenvalues --   -0.95125  -0.92447  -0.89252  -0.87316  -0.84605
 Alpha  occ. eigenvalues --   -0.82829  -0.81609  -0.81154  -0.78198  -0.77647
 Alpha  occ. eigenvalues --   -0.77013  -0.76313  -0.75230  -0.75025  -0.74762
 Alpha  occ. eigenvalues --   -0.73930  -0.72631  -0.72215  -0.71278  -0.70271
 Alpha  occ. eigenvalues --   -0.69421  -0.69060  -0.68687  -0.68212  -0.67936
 Alpha  occ. eigenvalues --   -0.67685  -0.66751  -0.66614  -0.66276  -0.66085
 Alpha  occ. eigenvalues --   -0.65843  -0.64439  -0.63958  -0.63438  -0.62454
 Alpha  occ. eigenvalues --   -0.61851  -0.59974  -0.58509  -0.57365  -0.57201
 Alpha  occ. eigenvalues --   -0.56785  -0.53779  -0.53419  -0.50743  -0.50432
 Alpha virt. eigenvalues --   -0.27754  -0.24934  -0.21479  -0.19754  -0.19222
 Alpha virt. eigenvalues --   -0.18305  -0.15404  -0.15266  -0.14389  -0.13493
 Alpha virt. eigenvalues --   -0.12256  -0.10185  -0.09729  -0.09100  -0.08468

  Beta  occ. eigenvalues --  -88.51022 -88.39924 -14.37706 -14.37522 -10.30635
  Beta  occ. eigenvalues --  -10.30580 -10.28414 -10.26992 -10.26658 -10.26418
  Beta  occ. eigenvalues --  -10.25889 -10.25879 -10.25181 -10.25072 -10.24298
  Beta  occ. eigenvalues --  -10.23724 -10.23153 -10.23125 -10.22920 -10.22160
  Beta  occ. eigenvalues --  -10.20651 -10.20539 -10.20484  -8.09693  -7.99084
  Beta  occ. eigenvalues --   -6.11679  -6.11351  -6.11134  -6.01312  -6.00865
  Beta  occ. eigenvalues --   -6.00066  -1.24694  -1.21928  -1.17046  -1.14754
  Beta  occ. eigenvalues --   -1.13281  -1.07329  -1.04440  -1.03258  -1.02970
  Beta  occ. eigenvalues --   -0.98646  -0.98209  -0.98115  -0.97314  -0.96075
  Beta  occ. eigenvalues --   -0.95023  -0.91820  -0.89023  -0.87243  -0.84501
  Beta  occ. eigenvalues --   -0.82797  -0.81591  -0.81119  -0.78120  -0.77390
  Beta  occ. eigenvalues --   -0.76809  -0.76319  -0.75124  -0.74816  -0.74414
  Beta  occ. eigenvalues --   -0.73933  -0.72546  -0.71446  -0.70962  -0.70179
  Beta  occ. eigenvalues --   -0.69310  -0.69002  -0.68604  -0.68141  -0.67795
  Beta  occ. eigenvalues --   -0.67404  -0.66726  -0.66493  -0.66270  -0.66061
  Beta  occ. eigenvalues --   -0.65765  -0.64400  -0.63862  -0.63031  -0.61784
  Beta  occ. eigenvalues --   -0.61753  -0.59890  -0.58150  -0.57363  -0.56823
  Beta  occ. eigenvalues --   -0.53803  -0.53498  -0.50653  -0.50258
  Beta virt. eigenvalues --   -0.35306  -0.25187  -0.24409  -0.21545  -0.19504
  Beta virt. eigenvalues --   -0.18870  -0.18046  -0.15440  -0.14977  -0.14096
  Beta virt. eigenvalues --   -0.13464  -0.12181  -0.10141  -0.09620  -0.09013

 Mulliken charges and spin densities:
               1          2
     1  C   -0.025179  -0.028110
     2  C   -0.240811   0.057069
     3  S   -0.008566   0.015933
     4  C   -0.022822  -0.008709
     5  C   -0.225437  -0.172536
     6  C    0.294799   0.753860
     7  C   -0.039067   0.059693
     8  C   -0.000323   0.003680
     9  H    0.176749  -0.006766
    10  C   -0.087866   0.038921
    11  C   -0.210194  -0.012069
    12  C   -0.009385   0.056674
    13  C    0.040725  -0.052758
    14  H    0.191284   0.006829
    15  H    0.193181   0.025347
    16  H    0.182783   0.004284
    17  C   -0.127183   0.011504
    18  H    0.182553   0.000649
    19  H    0.146314   0.002977
    20  H    0.174604  -0.002784
    21  H    0.162930  -0.000518
    22  H    0.167734  -0.001038
    23  S    0.308819   0.245412
    24  C   -0.466970   0.015119
    25  C    0.070587  -0.002713
    26  C    0.052655  -0.001770
    27  N    0.028597  -0.004027
    28  N    0.024911  -0.003728
    29  C   -0.243672   0.000219
    30  H    0.187943  -0.000204
    31  H    0.137603   0.000107
    32  H    0.185367  -0.000188
    33  C   -0.248169   0.000155
    34  H    0.182268  -0.000176
    35  H    0.191832  -0.000190
    36  H    0.145195  -0.000005
    37  C   -0.245199   0.000244
    38  H    0.184179  -0.000168
    39  H    0.131159   0.000165
    40  H    0.185504  -0.000217
    41  C   -0.250640   0.000168
    42  H    0.180052  -0.000169
    43  H    0.191996  -0.000165
    44  H    0.149155   0.000000
 Sum of Mulliken charges =   2.00000   1.00000

 Dipole moment (field-independent basis, Debye):
    X=             -6.3464    Y=             -1.1799    Z=              1.5071  Tot=              6.6287
 Quadrupole moment (field-independent basis, Debye-Ang):
   XX=             41.7146   YY=            -89.8809   ZZ=           -129.7390
   XY=             -8.8888   XZ=              6.2603   YZ=              4.9565

 Normal termination of Gaussian 16 at Wed Jan 27 00:32:24 2021.
