 Gaussian 16, Revision A.03,
 Gaussian 16:  EM64L-G16RevA.03 25-Dec-2016

 ----------------------------------------------------------------------
 #P LC-wHPBE/TZVP iop(3/107=0181000000, 3/108=0181000000) scf=(conver=6
 ,fermi,ndamp=35,noincfock,novaracc,vshift=500,xqc)
 ----------------------------------------------------------------------

 -------------
 H21 C19 S2 N2
 -------------
 Symbolic Z-matrix:
 Charge =  1 Multiplicity = 1

                         Standard orientation:
 ---------------------------------------------------------------------
 Center     Atomic      Atomic             Coordinates (Angstroms)
 Number     Number       Type             X           Y           Z
 ---------------------------------------------------------------------
      1          6           0        5.141333    0.341453   -1.428653
      2          6           0        4.246330    0.793113   -0.457920
      3         16           0        3.527427    2.438238   -0.612926
      4          6           0        3.852580   -0.085202    0.570411
      5          6           0        0.863708   -0.787434    0.770822
      6          6           0        1.152588   -1.949541    0.292605
      7          6           0        5.641454   -0.963707   -1.380320
      8          6           0        4.337968   -1.397272    0.611701
      9          1           0        2.805747   -0.536686    2.620663
     10          6           0       -0.327590   -0.104924    0.757243
     11          6           0        0.161049   -2.709273   -0.336618
     12          6           0       -1.110551   -2.125038   -0.416532
     13          6           0       -1.366563   -0.836811    0.116144
     14          1           0       -0.506361    0.876389    1.203135
     15          1           0        0.333628   -3.701573   -0.760587
     16          1           0       -1.915541   -2.656529   -0.930176
     17          6           0        5.242141   -1.827604   -0.363151
     18          1           0        5.450891    1.025420   -2.219360
     19          1           0        4.159480    2.990100    0.460876
     20          1           0        6.347910   -1.298886   -2.140548
     21          1           0        4.022912   -2.077842    1.402557
     22          1           0        5.625918   -2.847650   -0.323690
     23         16           0        2.641644    0.489998    1.741439
     24          6           0       -2.680648   -0.257498    0.003764
     25          6           0       -4.054270   -0.413992   -0.132503
     26          6           0       -3.489875    0.870167   -0.052158
     27          7           0       -5.099740   -1.211802   -0.243141
     28          7           0       -3.607387    2.185094   -0.049886
     29          6           0       -4.958870   -2.662960   -0.086881
     30          1           0       -5.249390   -3.175063   -1.015650
     31          1           0       -3.921906   -2.911213    0.159186
     32          1           0       -5.607057   -3.011636    0.730112
     33          6           0       -6.456302   -0.708508   -0.463149
     34          1           0       -6.932296   -1.289768   -1.265044
     35          1           0       -7.062340   -0.804638    0.450448
     36          1           0       -6.424137    0.340187   -0.774131
     37          6           0       -2.422516    3.047015   -0.104701
     38          1           0       -2.374233    3.683098    0.791036
     39          1           0       -1.518165    2.434104   -0.168534
     40          1           0       -2.472812    3.689712   -0.995626
     41          6           0       -4.905946    2.859820   -0.071613
     42          1           0       -4.903422    3.671788    0.668659
     43          1           0       -5.109136    3.288120   -1.064906
     44          1           0       -5.701050    2.156915    0.195603
 ---------------------------------------------------------------------

 SCF Done:  E(RLC-wHPBE) =  -1641.32389154     A.U. after   17 cycles

 The electronic state is 1-A.
 Alpha  occ. eigenvalues --  -88.32543 -88.27829 -14.28220 -14.28215 -10.20759
 Alpha  occ. eigenvalues --  -10.20726 -10.17137 -10.15312 -10.15288 -10.14820
 Alpha  occ. eigenvalues --  -10.14779 -10.12978 -10.12689 -10.12021 -10.12005
 Alpha  occ. eigenvalues --  -10.10716 -10.10554 -10.10219 -10.08925 -10.08222
 Alpha  occ. eigenvalues --  -10.08010 -10.07796 -10.06592  -7.91567  -7.87033
 Alpha  occ. eigenvalues --   -5.93667  -5.93236  -5.92816  -5.89247  -5.88819
 Alpha  occ. eigenvalues --   -5.87992  -1.15337  -1.12897  -1.07317  -1.00037
 Alpha  occ. eigenvalues --   -0.99505  -0.92870  -0.90719  -0.90484  -0.89919
 Alpha  occ. eigenvalues --   -0.89771  -0.88538  -0.88413  -0.87116  -0.84807
 Alpha  occ. eigenvalues --   -0.82418  -0.77853  -0.74997  -0.74119  -0.72788
 Alpha  occ. eigenvalues --   -0.72506  -0.71634  -0.69655  -0.67358  -0.67159
 Alpha  occ. eigenvalues --   -0.66689  -0.65470  -0.64884  -0.62321  -0.61473
 Alpha  occ. eigenvalues --   -0.61039  -0.60211  -0.60009  -0.59473  -0.59250
 Alpha  occ. eigenvalues --   -0.58462  -0.58356  -0.58186  -0.57685  -0.57458
 Alpha  occ. eigenvalues --   -0.56502  -0.56146  -0.56081  -0.55224  -0.53930
 Alpha  occ. eigenvalues --   -0.53602  -0.53095  -0.52597  -0.50390  -0.48821
 Alpha  occ. eigenvalues --   -0.48436  -0.47869  -0.47222  -0.44824  -0.42471
 Alpha  occ. eigenvalues --   -0.41372  -0.40238  -0.39295  -0.38528  -0.35559
 Alpha virt. eigenvalues --   -0.11620  -0.10167  -0.06943  -0.05672  -0.05441
 Alpha virt. eigenvalues --   -0.05165  -0.04169  -0.03916  -0.01442  -0.01236
 Alpha virt. eigenvalues --   -0.00784  -0.00170  -0.00112   0.01119   0.01479

 Mulliken charges:
               1
     1  C   -0.050536
     2  C   -0.236407
     3  S   -0.079947
     4  C    0.021264
     5  C   -0.192776
     6  C    0.127336
     7  C   -0.066076
     8  C    0.020275
     9  H    0.140037
    10  C   -0.116663
    11  C   -0.264796
    12  C   -0.042120
    13  C    0.073298
    14  H    0.144146
    15  H    0.128097
    16  H    0.138816
    17  C   -0.138385
    18  H    0.142379
    19  H    0.123680
    20  H    0.132553
    21  H    0.130284
    22  H    0.129578
    23  S    0.115048
    24  C   -0.436041
    25  C    0.049555
    26  C    0.036535
    27  N    0.011585
    28  N    0.009585
    29  C   -0.243227
    30  H    0.167638
    31  H    0.155391
    32  H    0.163278
    33  C   -0.244180
    34  H    0.165311
    35  H    0.172721
    36  H    0.139352
    37  C   -0.245589
    38  H    0.165957
    39  H    0.156740
    40  H    0.164057
    41  C   -0.246441
    42  H    0.164648
    43  H    0.173208
    44  H    0.140831
 Sum of Mulliken charges =   1.00000

 Dipole moment (field-independent basis, Debye):
    X=            -12.5030    Y=              1.1972    Z=              0.5070  Tot=             12.5704
 Quadrupole moment (field-independent basis, Debye-Ang):
   XX=            -28.2433   YY=           -114.6473   ZZ=           -141.3289
   XY=             -6.8793   XZ=              4.8177   YZ=              3.2506

 Normal termination of Gaussian 16 at Tue Jan 26 19:15:20 2021.
