 Gaussian 16, Revision A.03,
 Gaussian 16:  EM64L-G16RevA.03 25-Dec-2016

 ----------------------------------------------------------------------
 #P LC-wHPBE/TZVP iop(3/107=0173900000, 3/108=0173900000) scf=(conver=6
 ,fermi,ndamp=35,noincfock,novaracc,vshift=500,xqc)
 ----------------------------------------------------------------------

 -------------
 H21 C19 S2 N2
 -------------
 Symbolic Z-matrix:
 Charge =  1 Multiplicity = 1

                         Standard orientation:
 ---------------------------------------------------------------------
 Center     Atomic      Atomic             Coordinates (Angstroms)
 Number     Number       Type             X           Y           Z
 ---------------------------------------------------------------------
      1          6           0        5.141333    0.341453   -1.428653
      2          6           0        4.246330    0.793113   -0.457920
      3         16           0        3.527427    2.438238   -0.612926
      4          6           0        3.852580   -0.085202    0.570411
      5          6           0        0.863708   -0.787434    0.770822
      6          6           0        1.152588   -1.949541    0.292605
      7          6           0        5.641454   -0.963707   -1.380320
      8          6           0        4.337968   -1.397272    0.611701
      9          1           0        2.805747   -0.536686    2.620663
     10          6           0       -0.327590   -0.104924    0.757243
     11          6           0        0.161049   -2.709273   -0.336618
     12          6           0       -1.110551   -2.125038   -0.416532
     13          6           0       -1.366563   -0.836811    0.116144
     14          1           0       -0.506361    0.876389    1.203135
     15          1           0        0.333628   -3.701573   -0.760587
     16          1           0       -1.915541   -2.656529   -0.930176
     17          6           0        5.242141   -1.827604   -0.363151
     18          1           0        5.450891    1.025420   -2.219360
     19          1           0        4.159480    2.990100    0.460876
     20          1           0        6.347910   -1.298886   -2.140548
     21          1           0        4.022912   -2.077842    1.402557
     22          1           0        5.625918   -2.847650   -0.323690
     23         16           0        2.641644    0.489998    1.741439
     24          6           0       -2.680648   -0.257498    0.003764
     25          6           0       -4.054270   -0.413992   -0.132503
     26          6           0       -3.489875    0.870167   -0.052158
     27          7           0       -5.099740   -1.211802   -0.243141
     28          7           0       -3.607387    2.185094   -0.049886
     29          6           0       -4.958870   -2.662960   -0.086881
     30          1           0       -5.249390   -3.175063   -1.015650
     31          1           0       -3.921906   -2.911213    0.159186
     32          1           0       -5.607057   -3.011636    0.730112
     33          6           0       -6.456302   -0.708508   -0.463149
     34          1           0       -6.932296   -1.289768   -1.265044
     35          1           0       -7.062340   -0.804638    0.450448
     36          1           0       -6.424137    0.340187   -0.774131
     37          6           0       -2.422516    3.047015   -0.104701
     38          1           0       -2.374233    3.683098    0.791036
     39          1           0       -1.518165    2.434104   -0.168534
     40          1           0       -2.472812    3.689712   -0.995626
     41          6           0       -4.905946    2.859820   -0.071613
     42          1           0       -4.903422    3.671788    0.668659
     43          1           0       -5.109136    3.288120   -1.064906
     44          1           0       -5.701050    2.156915    0.195603
 ---------------------------------------------------------------------

 SCF Done:  E(RLC-wHPBE) =  -1641.31449499     A.U. after   17 cycles

 The electronic state is 1-A.
 Alpha  occ. eigenvalues --  -88.32166 -88.27451 -14.27824 -14.27818 -10.20315
 Alpha  occ. eigenvalues --  -10.20282 -10.16705 -10.14909 -10.14884 -10.14417
 Alpha  occ. eigenvalues --  -10.14375 -10.12569 -10.12289 -10.11609 -10.11601
 Alpha  occ. eigenvalues --  -10.10283 -10.10146 -10.09814 -10.08532 -10.07829
 Alpha  occ. eigenvalues --  -10.07616 -10.07403 -10.06196  -7.91182  -7.86649
 Alpha  occ. eigenvalues --   -5.93288  -5.92859  -5.92442  -5.88869  -5.88443
 Alpha  occ. eigenvalues --   -5.87617  -1.14899  -1.12474  -1.06889  -0.99607
 Alpha  occ. eigenvalues --   -0.99083  -0.92460  -0.90309  -0.90073  -0.89512
 Alpha  occ. eigenvalues --   -0.89360  -0.88128  -0.88006  -0.86722  -0.84415
 Alpha  occ. eigenvalues --   -0.82030  -0.77466  -0.74616  -0.73751  -0.72430
 Alpha  occ. eigenvalues --   -0.72150  -0.71275  -0.69289  -0.66986  -0.66810
 Alpha  occ. eigenvalues --   -0.66350  -0.65115  -0.64545  -0.61981  -0.61146
 Alpha  occ. eigenvalues --   -0.60699  -0.59881  -0.59664  -0.59146  -0.58931
 Alpha  occ. eigenvalues --   -0.58139  -0.58034  -0.57862  -0.57369  -0.57145
 Alpha  occ. eigenvalues --   -0.56192  -0.55839  -0.55762  -0.54910  -0.53614
 Alpha  occ. eigenvalues --   -0.53267  -0.52794  -0.52294  -0.50095  -0.48542
 Alpha  occ. eigenvalues --   -0.48140  -0.47591  -0.46946  -0.44563  -0.42221
 Alpha  occ. eigenvalues --   -0.41125  -0.40012  -0.39083  -0.38276  -0.35342
 Alpha virt. eigenvalues --   -0.11786  -0.10346  -0.07137  -0.05878  -0.05646
 Alpha virt. eigenvalues --   -0.05372  -0.04360  -0.04139  -0.01645  -0.01439
 Alpha virt. eigenvalues --   -0.01006  -0.00372  -0.00335   0.00905   0.01278

 Mulliken charges:
               1
     1  C   -0.049757
     2  C   -0.236011
     3  S   -0.080368
     4  C    0.022518
     5  C   -0.193659
     6  C    0.128975
     7  C   -0.065360
     8  C    0.020247
     9  H    0.140043
    10  C   -0.116601
    11  C   -0.265081
    12  C   -0.041347
    13  C    0.073695
    14  H    0.143300
    15  H    0.127700
    16  H    0.138098
    17  C   -0.137772
    18  H    0.141716
    19  H    0.123784
    20  H    0.132033
    21  H    0.129559
    22  H    0.129109
    23  S    0.114804
    24  C   -0.436564
    25  C    0.049718
    26  C    0.036623
    27  N    0.012060
    28  N    0.010073
    29  C   -0.244320
    30  H    0.167819
    31  H    0.155764
    32  H    0.163510
    33  C   -0.245267
    34  H    0.165535
    35  H    0.172898
    36  H    0.139744
    37  C   -0.246730
    38  H    0.166131
    39  H    0.157156
    40  H    0.164279
    41  C   -0.247517
    42  H    0.164870
    43  H    0.173379
    44  H    0.141216
 Sum of Mulliken charges =   1.00000

 Dipole moment (field-independent basis, Debye):
    X=            -12.4809    Y=              1.2017    Z=              0.5043  Tot=             12.5487
 Quadrupole moment (field-independent basis, Debye-Ang):
   XX=            -28.2430   YY=           -114.6632   ZZ=           -141.3515
   XY=             -6.8643   XZ=              4.8114   YZ=              3.2436

 Normal termination of Gaussian 16 at Tue Jan 26 22:56:00 2021.
