 Gaussian 16, Revision A.03,
 Gaussian 16:  EM64L-G16RevA.03 25-Dec-2016

 ----------------------------------------------------------------------
 #P LC-wHPBE/TZVP iop(3/107=0173900000, 3/108=0173900000) scf=(conver=6
 ,fermi,ndamp=35,noincfock,novaracc,vshift=500,xqc)
 ----------------------------------------------------------------------

 -------------
 H21 C19 S2 N2
 -------------
 Symbolic Z-matrix:
 Charge =  2 Multiplicity = 2

                         Standard orientation:
 ---------------------------------------------------------------------
 Center     Atomic      Atomic             Coordinates (Angstroms)
 Number     Number       Type             X           Y           Z
 ---------------------------------------------------------------------
      1          6           0        5.141333    0.341453   -1.428653
      2          6           0        4.246330    0.793113   -0.457920
      3         16           0        3.527427    2.438238   -0.612926
      4          6           0        3.852580   -0.085202    0.570411
      5          6           0        0.863708   -0.787434    0.770822
      6          6           0        1.152588   -1.949541    0.292605
      7          6           0        5.641454   -0.963707   -1.380320
      8          6           0        4.337968   -1.397272    0.611701
      9          1           0        2.805747   -0.536686    2.620663
     10          6           0       -0.327590   -0.104924    0.757243
     11          6           0        0.161049   -2.709273   -0.336618
     12          6           0       -1.110551   -2.125038   -0.416532
     13          6           0       -1.366563   -0.836811    0.116144
     14          1           0       -0.506361    0.876389    1.203135
     15          1           0        0.333628   -3.701573   -0.760587
     16          1           0       -1.915541   -2.656529   -0.930176
     17          6           0        5.242141   -1.827604   -0.363151
     18          1           0        5.450891    1.025420   -2.219360
     19          1           0        4.159480    2.990100    0.460876
     20          1           0        6.347910   -1.298886   -2.140548
     21          1           0        4.022912   -2.077842    1.402557
     22          1           0        5.625918   -2.847650   -0.323690
     23         16           0        2.641644    0.489998    1.741439
     24          6           0       -2.680648   -0.257498    0.003764
     25          6           0       -4.054270   -0.413992   -0.132503
     26          6           0       -3.489875    0.870167   -0.052158
     27          7           0       -5.099740   -1.211802   -0.243141
     28          7           0       -3.607387    2.185094   -0.049886
     29          6           0       -4.958870   -2.662960   -0.086881
     30          1           0       -5.249390   -3.175063   -1.015650
     31          1           0       -3.921906   -2.911213    0.159186
     32          1           0       -5.607057   -3.011636    0.730112
     33          6           0       -6.456302   -0.708508   -0.463149
     34          1           0       -6.932296   -1.289768   -1.265044
     35          1           0       -7.062340   -0.804638    0.450448
     36          1           0       -6.424137    0.340187   -0.774131
     37          6           0       -2.422516    3.047015   -0.104701
     38          1           0       -2.374233    3.683098    0.791036
     39          1           0       -1.518165    2.434104   -0.168534
     40          1           0       -2.472812    3.689712   -0.995626
     41          6           0       -4.905946    2.859820   -0.071613
     42          1           0       -4.903422    3.671788    0.668659
     43          1           0       -5.109136    3.288120   -1.064906
     44          1           0       -5.701050    2.156915    0.195603
 ---------------------------------------------------------------------

 SCF Done:  E(ULC-wHPBE) =  -1640.96135066     A.U. after   33 cycles
 SCF Done:  E(ULC-wHPBE) =  -1640.96135846     a.u. after    2 cycles

 The electronic state is 2-A.
 Alpha  occ. eigenvalues --  -88.51226 -88.39986 -14.37766 -14.37582 -10.30707
 Alpha  occ. eigenvalues --  -10.30651 -10.28334 -10.27183 -10.27074 -10.26673
 Alpha  occ. eigenvalues --  -10.26466 -10.26032 -10.25324 -10.25101 -10.24485
 Alpha  occ. eigenvalues --  -10.23794 -10.23222 -10.23194 -10.22989 -10.22233
 Alpha  occ. eigenvalues --  -10.20735 -10.20627 -10.20561  -8.09902  -7.99147
 Alpha  occ. eigenvalues --   -6.11840  -6.11720  -6.11350  -6.01370  -6.00924
 Alpha  occ. eigenvalues --   -6.00143  -1.24756  -1.21988  -1.17141  -1.15285
 Alpha  occ. eigenvalues --   -1.13564  -1.07756  -1.05145  -1.03429  -1.03161
 Alpha  occ. eigenvalues --   -0.98726  -0.98478  -0.98195  -0.97380  -0.96182
 Alpha  occ. eigenvalues --   -0.95185  -0.92519  -0.89324  -0.87375  -0.84662
 Alpha  occ. eigenvalues --   -0.82897  -0.81672  -0.81216  -0.78254  -0.77711
 Alpha  occ. eigenvalues --   -0.77076  -0.76377  -0.75289  -0.75083  -0.74822
 Alpha  occ. eigenvalues --   -0.73991  -0.72683  -0.72277  -0.71336  -0.70335
 Alpha  occ. eigenvalues --   -0.69475  -0.69112  -0.68740  -0.68269  -0.67996
 Alpha  occ. eigenvalues --   -0.67738  -0.66806  -0.66669  -0.66332  -0.66139
 Alpha  occ. eigenvalues --   -0.65898  -0.64493  -0.64012  -0.63488  -0.62502
 Alpha  occ. eigenvalues --   -0.61896  -0.60015  -0.58561  -0.57417  -0.57257
 Alpha  occ. eigenvalues --   -0.56835  -0.53815  -0.53455  -0.50779  -0.50471
 Alpha virt. eigenvalues --   -0.27730  -0.24911  -0.21450  -0.19718  -0.19182
 Alpha virt. eigenvalues --   -0.18266  -0.15369  -0.15231  -0.14353  -0.13460
 Alpha virt. eigenvalues --   -0.12211  -0.10153  -0.09685  -0.09067  -0.08432

  Beta  occ. eigenvalues --  -88.51098 -88.39978 -14.37774 -14.37590 -10.30711
  Beta  occ. eigenvalues --  -10.30656 -10.28499 -10.27066 -10.26734 -10.26483
  Beta  occ. eigenvalues --  -10.25965 -10.25960 -10.25242 -10.25148 -10.24373
  Beta  occ. eigenvalues --  -10.23793 -10.23222 -10.23194 -10.22989 -10.22225
  Beta  occ. eigenvalues --  -10.20711 -10.20600 -10.20545  -8.09770  -7.99140
  Beta  occ. eigenvalues --   -6.11755  -6.11427  -6.11209  -6.01367  -6.00920
  Beta  occ. eigenvalues --   -6.00121  -1.24769  -1.22000  -1.17121  -1.14834
  Beta  occ. eigenvalues --   -1.13351  -1.07400  -1.04517  -1.03326  -1.03043
  Beta  occ. eigenvalues --   -0.98716  -0.98274  -0.98183  -0.97383  -0.96143
  Beta  occ. eigenvalues --   -0.95084  -0.91891  -0.89094  -0.87302  -0.84559
  Beta  occ. eigenvalues --   -0.82865  -0.81653  -0.81181  -0.78176  -0.77454
  Beta  occ. eigenvalues --   -0.76871  -0.76383  -0.75182  -0.74872  -0.74475
  Beta  occ. eigenvalues --   -0.73994  -0.72598  -0.71505  -0.71018  -0.70243
  Beta  occ. eigenvalues --   -0.69364  -0.69053  -0.68658  -0.68196  -0.67855
  Beta  occ. eigenvalues --   -0.67457  -0.66781  -0.66547  -0.66326  -0.66116
  Beta  occ. eigenvalues --   -0.65820  -0.64454  -0.63916  -0.63077  -0.61830
  Beta  occ. eigenvalues --   -0.61798  -0.59931  -0.58201  -0.57414  -0.56872
  Beta  occ. eigenvalues --   -0.53839  -0.53533  -0.50691  -0.50297
  Beta virt. eigenvalues --   -0.35280  -0.25151  -0.24384  -0.21517  -0.19467
  Beta virt. eigenvalues --   -0.18830  -0.18006  -0.15405  -0.14941  -0.14060
  Beta virt. eigenvalues --   -0.13432  -0.12137  -0.10108  -0.09576  -0.08980

 Mulliken charges and spin densities:
               1          2
     1  C   -0.025314  -0.028167
     2  C   -0.240849   0.056950
     3  S   -0.008751   0.015547
     4  C   -0.023186  -0.008971
     5  C   -0.225411  -0.173199
     6  C    0.294832   0.755001
     7  C   -0.039196   0.059667
     8  C   -0.000364   0.003953
     9  H    0.176782  -0.006783
    10  C   -0.087861   0.039091
    11  C   -0.210127  -0.012324
    12  C   -0.009440   0.056869
    13  C    0.040663  -0.052971
    14  H    0.191432   0.006816
    15  H    0.193303   0.025380
    16  H    0.182907   0.004267
    17  C   -0.127356   0.011101
    18  H    0.182634   0.000656
    19  H    0.146236   0.002971
    20  H    0.174653  -0.002782
    21  H    0.163000  -0.000534
    22  H    0.167768  -0.001019
    23  S    0.309271   0.246016
    24  C   -0.466988   0.015178
    25  C    0.070588  -0.002722
    26  C    0.052661  -0.001780
    27  N    0.028538  -0.004040
    28  N    0.024852  -0.003741
    29  C   -0.243487   0.000221
    30  H    0.187913  -0.000204
    31  H    0.137516   0.000106
    32  H    0.185329  -0.000189
    33  C   -0.247996   0.000156
    34  H    0.182229  -0.000177
    35  H    0.191799  -0.000190
    36  H    0.145131  -0.000005
    37  C   -0.245007   0.000246
    38  H    0.184149  -0.000169
    39  H    0.131078   0.000163
    40  H    0.185471  -0.000218
    41  C   -0.250469   0.000169
    42  H    0.180013  -0.000170
    43  H    0.191966  -0.000166
    44  H    0.149089   0.000000
 Sum of Mulliken charges =   2.00000   1.00000

 Dipole moment (field-independent basis, Debye):
    X=             -6.3569    Y=             -1.1856    Z=              1.5120  Tot=              6.6410
 Quadrupole moment (field-independent basis, Debye-Ang):
   XX=             41.6621   YY=            -89.8839   ZZ=           -129.7325
   XY=             -8.8968   XZ=              6.2773   YZ=              4.9604

 Normal termination of Gaussian 16 at Tue Jan 26 23:38:58 2021.
