 Gaussian 16, Revision A.03,
 Gaussian 16:  EM64L-G16RevA.03 25-Dec-2016

 ----------------------------------------------------------------------
 #P LC-wHPBE/TZVP iop(3/107=0189700000, 3/108=0189700000) scf=(conver=6
 ,fermi,ndamp=35,noincfock,novaracc,vshift=500,xqc)
 ----------------------------------------------------------------------

 -------------
 H32 C26 S2 N4
 -------------
 Symbolic Z-matrix:
 Charge =  3 Multiplicity = 2

                         Standard orientation:
 ---------------------------------------------------------------------
 Center     Atomic      Atomic             Coordinates (Angstroms)
 Number     Number       Type             X           Y           Z
 ---------------------------------------------------------------------
      1          6           0        2.928949   -0.209586    0.466429
      2          6           0        1.563914   -0.061175    0.303790
      3         16           0        0.549634   -0.929940    1.465043
      4          6           0        1.080492    0.744795   -0.706590
      5          6           0       -1.720975   -1.178026   -0.124019
      6          6           0       -1.104728   -0.556786    0.961278
      7          6           0        3.804439    0.453059   -0.373760
      8          6           0        1.957571    1.398720   -1.546095
      9          1           0        0.017059    0.867388   -0.843825
     10          6           0       -3.055310   -0.905897   -0.375396
     11          6           0       -1.834379    0.303673    1.763498
     12          6           0       -3.157322    0.570140    1.506853
     13          6           0       -3.772824   -0.043708    0.429435
     14          1           0       -3.535939   -1.385849   -1.215765
     15          1           0       -1.346414    0.763075    2.610001
     16          1           0       -3.711030    1.227115    2.160412
     17          6           0        3.316329    1.262630   -1.386512
     18          1           0        3.309964   -0.825983    1.268943
     19          1           0        0.121390   -2.546838   -0.437504
     20          1           0        1.570409    2.020933   -2.339064
     21          1           0        3.993957    1.766527   -2.059405
     22         16           0       -0.923466   -2.279512   -1.229412
     23          6           0       -5.179371    0.186625    0.159910
     24          6           0       -6.258258    1.013194    0.194238
     25          6           0       -6.373984   -0.291545   -0.281001
     26          7           0       -6.778879    2.172200    0.466391
     27          7           0       -7.085837   -1.264246   -0.765069
     28          6           0       -5.943792    3.274283    0.907684
     29          1           0       -6.187951    3.545500    1.931936
     30          1           0       -4.898805    2.994168    0.846509
     31          1           0       -6.108951    4.134804    0.264794
     32          6           0       -8.194976    2.451187    0.318309
     33          1           0       -8.537142    3.011091    1.183702
     34          1           0       -8.380874    3.039067   -0.577705
     35          1           0       -8.758216    1.527533    0.273817
     36          6           0       -6.515968   -2.589608   -0.931428
     37          1           0       -6.460524   -2.846499   -1.986434
     38          1           0       -5.524243   -2.624805   -0.496396
     39          1           0       -7.140387   -3.318442   -0.421721
     40          6           0       -8.484929   -1.112006   -1.118438
     41          1           0       -8.667734   -1.621246   -2.059984
     42          1           0       -9.125917   -1.545202   -0.353886
     43          1           0       -8.728287   -0.065327   -1.252120
     44          6           0        5.234909    0.301436   -0.192555
     45          6           0        6.482207    0.837696   -0.274291
     46          6           0        6.296202   -0.469144    0.166373
     47          7           0        7.258316    1.842942   -0.551570
     48          7           0        6.771609   -1.601745    0.593499
     49          6           0        6.699705    3.135271   -0.904858
     50          1           0        6.943427    3.382636   -1.935256
     51          1           0        5.623434    3.119821   -0.780416
     52          1           0        7.111169    3.899344   -0.250646
     53          6           0        8.704916    1.757804   -0.486526
     54          1           0        9.127537    2.257490   -1.353238
     55          1           0        9.080352    2.238157    0.414316
     56          1           0        9.022841    0.722915   -0.509579
     57          6           0        5.902929   -2.750782    0.768792
     58          1           0        5.850729   -3.027562    1.819029
     59          1           0        4.908582   -2.521281    0.404440
     60          1           0        6.292204   -3.591280    0.200176
     61          6           0        8.181475   -1.806186    0.866823
     62          1           0        8.283723   -2.375263    1.786100
     63          1           0        8.657299   -2.356258    0.057912
     64          1           0        8.679880   -0.854950    1.006340
 ---------------------------------------------------------------------

 SCF Done:  E(ULC-wHPBE) =  -2023.31727223     A.U. after   33 cycles
 SCF Done:  E(ULC-wHPBE) =  -2023.31729085     a.u. after    2 cycles

 The electronic state is 2-A.
 Alpha  occ. eigenvalues --  -88.56641 -88.51522 -14.43679 -14.43676 -14.43239
 Alpha  occ. eigenvalues --  -14.43020 -10.36425 -10.36372 -10.35965 -10.35872
 Alpha  occ. eigenvalues --  -10.35783 -10.35439 -10.35277 -10.33164 -10.32673
 Alpha  occ. eigenvalues --  -10.32470 -10.32267 -10.31433 -10.31025 -10.30968
 Alpha  occ. eigenvalues --  -10.30892 -10.30799 -10.30755 -10.29675 -10.28849
 Alpha  occ. eigenvalues --  -10.28812 -10.28757 -10.28216 -10.28155 -10.28149
 Alpha  occ. eigenvalues --  -10.27919 -10.27687  -8.15544  -8.10744  -6.17578
 Alpha  occ. eigenvalues --   -6.17167  -6.17005  -6.12880  -6.12398  -6.11919
 Alpha  occ. eigenvalues --   -1.32096  -1.31630  -1.29024  -1.28548  -1.24969
 Alpha  occ. eigenvalues --   -1.24237  -1.23848  -1.22384  -1.17883  -1.15283
 Alpha  occ. eigenvalues --   -1.12377  -1.11415  -1.07923  -1.06717  -1.04982
 Alpha  occ. eigenvalues --   -1.04792  -1.04545  -1.04147  -1.03884  -1.03501
 Alpha  occ. eigenvalues --   -1.02694  -1.02344  -0.99990  -0.98538  -0.97134
 Alpha  occ. eigenvalues --   -0.95683  -0.91115  -0.90710  -0.87789  -0.87512
 Alpha  occ. eigenvalues --   -0.87343  -0.87159  -0.85792  -0.85419  -0.84811
 Alpha  occ. eigenvalues --   -0.83778  -0.83174  -0.82789  -0.82555  -0.81896
 Alpha  occ. eigenvalues --   -0.81706  -0.81085  -0.80386  -0.80195  -0.79923
 Alpha  occ. eigenvalues --   -0.79637  -0.79163  -0.78502  -0.77738  -0.76808
 Alpha  occ. eigenvalues --   -0.75668  -0.74785  -0.74706  -0.74555  -0.73962
 Alpha  occ. eigenvalues --   -0.73756  -0.73628  -0.73140  -0.72952  -0.72470
 Alpha  occ. eigenvalues --   -0.72335  -0.72268  -0.72115  -0.72004  -0.71776
 Alpha  occ. eigenvalues --   -0.71745  -0.71470  -0.70744  -0.70543  -0.69918
 Alpha  occ. eigenvalues --   -0.69615  -0.69367  -0.69060  -0.68747  -0.67772
 Alpha  occ. eigenvalues --   -0.64577  -0.63952  -0.63370  -0.62911  -0.61571
 Alpha  occ. eigenvalues --   -0.59652  -0.56611  -0.56125
 Alpha virt. eigenvalues --   -0.30948  -0.29367  -0.27654  -0.26917  -0.23877
 Alpha virt. eigenvalues --   -0.22243  -0.20759  -0.19989  -0.19675  -0.19333
 Alpha virt. eigenvalues --   -0.18480  -0.17885  -0.17821  -0.16723  -0.15305

  Beta  occ. eigenvalues --  -88.56438 -88.51445 -14.43645 -14.43644 -14.43229
  Beta  occ. eigenvalues --  -14.43013 -10.36426 -10.36375 -10.35970 -10.35876
  Beta  occ. eigenvalues --  -10.35715 -10.35358 -10.35235 -10.33146 -10.32673
  Beta  occ. eigenvalues --  -10.32519 -10.32256 -10.31337 -10.31048 -10.30892
  Beta  occ. eigenvalues --  -10.30850 -10.30652 -10.30589 -10.29724 -10.28849
  Beta  occ. eigenvalues --  -10.28813 -10.28758 -10.28215 -10.28156 -10.28150
  Beta  occ. eigenvalues --  -10.27919 -10.27687  -8.15338  -8.10667  -6.17446
  Beta  occ. eigenvalues --   -6.16927  -6.16558  -6.12825  -6.12342  -6.11723
  Beta  occ. eigenvalues --   -1.32063  -1.31624  -1.28979  -1.28537  -1.24751
  Beta  occ. eigenvalues --   -1.24141  -1.23757  -1.22189  -1.17440  -1.15014
  Beta  occ. eigenvalues --   -1.12198  -1.11300  -1.07470  -1.06306  -1.04944
  Beta  occ. eigenvalues --   -1.04783  -1.04535  -1.04142  -1.03877  -1.03500
  Beta  occ. eigenvalues --   -1.02664  -1.02326  -0.99802  -0.98394  -0.96960
  Beta  occ. eigenvalues --   -0.95457  -0.90978  -0.90610  -0.87748  -0.87487
  Beta  occ. eigenvalues --   -0.87306  -0.87140  -0.85618  -0.85270  -0.84672
  Beta  occ. eigenvalues --   -0.83704  -0.83119  -0.82758  -0.82497  -0.81840
  Beta  occ. eigenvalues --   -0.81667  -0.81052  -0.80304  -0.80058  -0.79900
  Beta  occ. eigenvalues --   -0.79463  -0.79082  -0.78315  -0.77233  -0.76552
  Beta  occ. eigenvalues --   -0.75514  -0.74742  -0.74537  -0.74397  -0.73947
  Beta  occ. eigenvalues --   -0.73720  -0.73478  -0.72992  -0.72806  -0.72418
  Beta  occ. eigenvalues --   -0.72292  -0.72250  -0.72050  -0.71906  -0.71770
  Beta  occ. eigenvalues --   -0.71715  -0.71447  -0.70541  -0.70411  -0.69879
  Beta  occ. eigenvalues --   -0.69587  -0.69314  -0.68856  -0.67241  -0.66699
  Beta  occ. eigenvalues --   -0.64205  -0.63648  -0.63247  -0.62876  -0.58184
  Beta  occ. eigenvalues --   -0.56442  -0.55674
  Beta virt. eigenvalues --   -0.44843  -0.30536  -0.28774  -0.27039  -0.26181
  Beta virt. eigenvalues --   -0.23511  -0.21978  -0.20504  -0.19804  -0.19585
  Beta virt. eigenvalues --   -0.19314  -0.18313  -0.17828  -0.17652  -0.16322

 Mulliken charges and spin densities:
               1          2
     1  C   -0.088133   0.072613
     2  C   -0.289711   0.018789
     3  S    0.332143   0.403240
     4  C    0.080469   0.092983
     5  C   -0.107880   0.029959
     6  C   -0.166323   0.061751
     7  C    0.075945  -0.057646
     8  C   -0.115404  -0.049577
     9  H    0.200499  -0.004862
    10  C   -0.039029   0.001668
    11  C   -0.021007  -0.032745
    12  C   -0.064866   0.083343
    13  C    0.121166   0.005694
    14  H    0.210854   0.000498
    15  H    0.170485   0.000666
    16  H    0.191798  -0.002671
    17  C   -0.050501   0.178335
    18  H    0.224576  -0.001537
    19  H    0.132228  -0.002241
    20  H    0.167453   0.001785
    21  H    0.193820  -0.007347
    22  S    0.167892   0.169153
    23  C   -0.528763  -0.004904
    24  C    0.096082  -0.000326
    25  C    0.081183  -0.001298
    26  N    0.040733   0.015620
    27  N    0.037352   0.017123
    28  C   -0.255734  -0.000482
    29  H    0.197492   0.000995
    30  H    0.134267  -0.000116
    31  H    0.191320   0.000734
    32  C   -0.257983  -0.000649
    33  H    0.188790   0.000693
    34  H    0.200695   0.000937
    35  H    0.152518   0.000085
    36  C   -0.261785  -0.000755
    37  H    0.194973   0.001040
    38  H    0.140974  -0.000069
    39  H    0.195002   0.001035
    40  C   -0.262637  -0.000642
    41  H    0.188211   0.000727
    42  H    0.203522   0.001004
    43  H    0.153125   0.000068
    44  C   -0.485251   0.005589
    45  C    0.094010  -0.003970
    46  C    0.084640  -0.004367
    47  N    0.036384   0.003488
    48  N    0.033304   0.004953
    49  C   -0.257190   0.000293
    50  H    0.196148   0.000310
    51  H    0.137357  -0.000128
    52  H    0.191568  -0.000009
    53  C   -0.260826  -0.000182
    54  H    0.187928   0.000128
    55  H    0.200142   0.000302
    56  H    0.151585   0.000055
    57  C   -0.257566  -0.000165
    58  H    0.191890   0.000259
    59  H    0.128752  -0.000053
    60  H    0.192656   0.000438
    61  C   -0.262761  -0.000183
    62  H    0.185333   0.000227
    63  H    0.201095   0.000330
    64  H    0.154987   0.000016
 Sum of Mulliken charges =   3.00000   1.00000

 Dipole moment (field-independent basis, Debye):
    X=             -0.1619    Y=              2.0580    Z=             -0.2389  Tot=              2.0781
 Quadrupole moment (field-independent basis, Debye-Ang):
   XX=            369.8511   YY=           -121.6814   ZZ=           -172.9622
   XY=             -6.2685   XZ=              3.8130   YZ=             -1.4702

 Normal termination of Gaussian 16 at Wed Jan 27 11:31:59 2021.
