 Gaussian 16, Revision A.03,
 Gaussian 16:  EM64L-G16RevA.03 25-Dec-2016

 ----------------------------------------------------------------------
 #P LC-wHPBE/TZVP iop(3/107=0191400000, 3/108=0191400000) scf=(conver=6
 ,fermi,ndamp=35,noincfock,novaracc,vshift=500,xqc)
 ----------------------------------------------------------------------

 -------------
 H32 C26 S2 N4
 -------------
 Symbolic Z-matrix:
 Charge =  2 Multiplicity = 1

                         Standard orientation:
 ---------------------------------------------------------------------
 Center     Atomic      Atomic             Coordinates (Angstroms)
 Number     Number       Type             X           Y           Z
 ---------------------------------------------------------------------
      1          6           0        2.928949   -0.209586    0.466429
      2          6           0        1.563914   -0.061175    0.303790
      3         16           0        0.549634   -0.929940    1.465043
      4          6           0        1.080492    0.744795   -0.706590
      5          6           0       -1.720975   -1.178026   -0.124019
      6          6           0       -1.104728   -0.556786    0.961278
      7          6           0        3.804439    0.453059   -0.373760
      8          6           0        1.957571    1.398720   -1.546095
      9          1           0        0.017059    0.867388   -0.843825
     10          6           0       -3.055310   -0.905897   -0.375396
     11          6           0       -1.834379    0.303673    1.763498
     12          6           0       -3.157322    0.570140    1.506853
     13          6           0       -3.772824   -0.043708    0.429435
     14          1           0       -3.535939   -1.385849   -1.215765
     15          1           0       -1.346414    0.763075    2.610001
     16          1           0       -3.711030    1.227115    2.160412
     17          6           0        3.316329    1.262630   -1.386512
     18          1           0        3.309964   -0.825983    1.268943
     19          1           0        0.121390   -2.546838   -0.437504
     20          1           0        1.570409    2.020933   -2.339064
     21          1           0        3.993957    1.766527   -2.059405
     22         16           0       -0.923466   -2.279512   -1.229412
     23          6           0       -5.179371    0.186625    0.159910
     24          6           0       -6.258258    1.013194    0.194238
     25          6           0       -6.373984   -0.291545   -0.281001
     26          7           0       -6.778879    2.172200    0.466391
     27          7           0       -7.085837   -1.264246   -0.765069
     28          6           0       -5.943792    3.274283    0.907684
     29          1           0       -6.187951    3.545500    1.931936
     30          1           0       -4.898805    2.994168    0.846509
     31          1           0       -6.108951    4.134804    0.264794
     32          6           0       -8.194976    2.451187    0.318309
     33          1           0       -8.537142    3.011091    1.183702
     34          1           0       -8.380874    3.039067   -0.577705
     35          1           0       -8.758216    1.527533    0.273817
     36          6           0       -6.515968   -2.589608   -0.931428
     37          1           0       -6.460524   -2.846499   -1.986434
     38          1           0       -5.524243   -2.624805   -0.496396
     39          1           0       -7.140387   -3.318442   -0.421721
     40          6           0       -8.484929   -1.112006   -1.118438
     41          1           0       -8.667734   -1.621246   -2.059984
     42          1           0       -9.125917   -1.545202   -0.353886
     43          1           0       -8.728287   -0.065327   -1.252120
     44          6           0        5.234909    0.301436   -0.192555
     45          6           0        6.482207    0.837696   -0.274291
     46          6           0        6.296202   -0.469144    0.166373
     47          7           0        7.258316    1.842942   -0.551570
     48          7           0        6.771609   -1.601745    0.593499
     49          6           0        6.699705    3.135271   -0.904858
     50          1           0        6.943427    3.382636   -1.935256
     51          1           0        5.623434    3.119821   -0.780416
     52          1           0        7.111169    3.899344   -0.250646
     53          6           0        8.704916    1.757804   -0.486526
     54          1           0        9.127537    2.257490   -1.353238
     55          1           0        9.080352    2.238157    0.414316
     56          1           0        9.022841    0.722915   -0.509579
     57          6           0        5.902929   -2.750782    0.768792
     58          1           0        5.850729   -3.027562    1.819029
     59          1           0        4.908582   -2.521281    0.404440
     60          1           0        6.292204   -3.591280    0.200176
     61          6           0        8.181475   -1.806186    0.866823
     62          1           0        8.283723   -2.375263    1.786100
     63          1           0        8.657299   -2.356258    0.057912
     64          1           0        8.679880   -0.854950    1.006340
 ---------------------------------------------------------------------

 SCF Done:  E(RLC-wHPBE) =  -2023.76986729     A.U. after   16 cycles

 The electronic state is 1-A.
 Alpha  occ. eigenvalues --  -88.37638 -88.36281 -14.34666 -14.34609 -14.34226
 Alpha  occ. eigenvalues --  -14.34170 -10.27172 -10.27118 -10.26693 -10.26641
 Alpha  occ. eigenvalues --  -10.23325 -10.22883 -10.21734 -10.20979 -10.20722
 Alpha  occ. eigenvalues --  -10.20706 -10.20673 -10.20649 -10.20648 -10.20460
 Alpha  occ. eigenvalues --  -10.20389 -10.20340 -10.20318 -10.20142 -10.19912
 Alpha  occ. eigenvalues --  -10.18435 -10.17923 -10.17921 -10.17868 -10.17137
 Alpha  occ. eigenvalues --  -10.16971 -10.16770  -7.96844  -7.95642  -5.99075
 Alpha  occ. eigenvalues --   -5.98555  -5.97828  -5.97816  -5.97342  -5.96638
 Alpha  occ. eigenvalues --   -1.23133  -1.22703  -1.20345  -1.19928  -1.15210
 Alpha  occ. eigenvalues --   -1.14785  -1.10624  -1.09024  -1.03687  -1.01360
 Alpha  occ. eigenvalues --   -0.99336  -0.98394  -0.96890  -0.96564  -0.96513
 Alpha  occ. eigenvalues --   -0.96218  -0.95436  -0.95055  -0.94536  -0.93998
 Alpha  occ. eigenvalues --   -0.93753  -0.92604  -0.87188  -0.85827  -0.84019
 Alpha  occ. eigenvalues --   -0.82677  -0.79521  -0.79407  -0.79138  -0.78868
 Alpha  occ. eigenvalues --   -0.78305  -0.77814  -0.74845  -0.74561  -0.74387
 Alpha  occ. eigenvalues --   -0.74148  -0.73743  -0.73233  -0.72222  -0.72126
 Alpha  occ. eigenvalues --   -0.71841  -0.71735  -0.70701  -0.69646  -0.67394
 Alpha  occ. eigenvalues --   -0.67153  -0.66722  -0.66616  -0.66472  -0.66224
 Alpha  occ. eigenvalues --   -0.65973  -0.65858  -0.65747  -0.65145  -0.64727
 Alpha  occ. eigenvalues --   -0.64518  -0.64418  -0.64207  -0.63908  -0.63773
 Alpha  occ. eigenvalues --   -0.63659  -0.63350  -0.62549  -0.62364  -0.62086
 Alpha  occ. eigenvalues --   -0.61991  -0.61393  -0.60458  -0.60368  -0.58471
 Alpha  occ. eigenvalues --   -0.57965  -0.56893  -0.56354  -0.54924  -0.54698
 Alpha  occ. eigenvalues --   -0.54510  -0.53893  -0.51764  -0.51441  -0.47259
 Alpha  occ. eigenvalues --   -0.46790  -0.45361  -0.44952
 Alpha virt. eigenvalues --   -0.18666  -0.17412  -0.14512  -0.13528  -0.10836
 Alpha virt. eigenvalues --   -0.10583  -0.10242  -0.09863  -0.09196  -0.08898
 Alpha virt. eigenvalues --   -0.08615  -0.07095  -0.06275  -0.05910  -0.04985

 Mulliken charges:
               1
     1  C   -0.123394
     2  C   -0.245447
     3  S    0.089603
     4  C    0.056118
     5  C   -0.075613
     6  C   -0.155486
     7  C    0.100281
     8  C   -0.130094
     9  H    0.177056
    10  C   -0.078474
    11  C   -0.048813
    12  C   -0.094244
    13  C    0.132592
    14  H    0.178453
    15  H    0.142791
    16  H    0.157685
    17  C   -0.108317
    18  H    0.187496
    19  H    0.127926
    20  H    0.131380
    21  H    0.156112
    22  S    0.011318
    23  C   -0.509044
    24  C    0.086904
    25  C    0.071563
    26  N    0.023992
    27  N    0.020981
    28  C   -0.257002
    29  H    0.180010
    30  H    0.151472
    31  H    0.173314
    32  C   -0.255597
    33  H    0.174330
    34  H    0.184736
    35  H    0.146252
    36  C   -0.261597
    37  H    0.179763
    38  H    0.158415
    39  H    0.175623
    40  C   -0.260336
    41  H    0.174765
    42  H    0.186675
    43  H    0.146593
    44  C   -0.469527
    45  C    0.086146
    46  C    0.078396
    47  N    0.020802
    48  N    0.019549
    49  C   -0.258109
    50  H    0.178544
    51  H    0.154871
    52  H    0.172974
    53  C   -0.258273
    54  H    0.173707
    55  H    0.184275
    56  H    0.146146
    57  C   -0.258456
    58  H    0.177526
    59  H    0.151906
    60  H    0.173566
    61  C   -0.260321
    62  H    0.172871
    63  H    0.184854
    64  H    0.147812
 Sum of Mulliken charges =   2.00000

 Dipole moment (field-independent basis, Debye):
    X=             -0.3791    Y=              3.2501    Z=             -0.5858  Tot=              3.3241
 Quadrupole moment (field-independent basis, Debye-Ang):
   XX=            270.0955   YY=           -143.0521   ZZ=           -187.0863
   XY=             -8.5170   XZ=              5.3408   YZ=             -1.2537

 Normal termination of Gaussian 16 at Wed Jan 27 07:12:09 2021.
