 Gaussian 16, Revision A.03,
 Gaussian 16:  EM64L-G16RevA.03 25-Dec-2016

 ----------------------------------------------------------------------
 #P LC-wHPBE/TZVP iop(3/107=0190700000, 3/108=0190700000) scf=(conver=6
 ,fermi,ndamp=35,noincfock,novaracc,vshift=500,xqc)
 ----------------------------------------------------------------------

 -------------
 H32 C26 S2 N4
 -------------
 Symbolic Z-matrix:
 Charge =  3 Multiplicity = 2

                         Standard orientation:
 ---------------------------------------------------------------------
 Center     Atomic      Atomic             Coordinates (Angstroms)
 Number     Number       Type             X           Y           Z
 ---------------------------------------------------------------------
      1          6           0        2.928949   -0.209586    0.466429
      2          6           0        1.563914   -0.061175    0.303790
      3         16           0        0.549634   -0.929940    1.465043
      4          6           0        1.080492    0.744795   -0.706590
      5          6           0       -1.720975   -1.178026   -0.124019
      6          6           0       -1.104728   -0.556786    0.961278
      7          6           0        3.804439    0.453059   -0.373760
      8          6           0        1.957571    1.398720   -1.546095
      9          1           0        0.017059    0.867388   -0.843825
     10          6           0       -3.055310   -0.905897   -0.375396
     11          6           0       -1.834379    0.303673    1.763498
     12          6           0       -3.157322    0.570140    1.506853
     13          6           0       -3.772824   -0.043708    0.429435
     14          1           0       -3.535939   -1.385849   -1.215765
     15          1           0       -1.346414    0.763075    2.610001
     16          1           0       -3.711030    1.227115    2.160412
     17          6           0        3.316329    1.262630   -1.386512
     18          1           0        3.309964   -0.825983    1.268943
     19          1           0        0.121390   -2.546838   -0.437504
     20          1           0        1.570409    2.020933   -2.339064
     21          1           0        3.993957    1.766527   -2.059405
     22         16           0       -0.923466   -2.279512   -1.229412
     23          6           0       -5.179371    0.186625    0.159910
     24          6           0       -6.258258    1.013194    0.194238
     25          6           0       -6.373984   -0.291545   -0.281001
     26          7           0       -6.778879    2.172200    0.466391
     27          7           0       -7.085837   -1.264246   -0.765069
     28          6           0       -5.943792    3.274283    0.907684
     29          1           0       -6.187951    3.545500    1.931936
     30          1           0       -4.898805    2.994168    0.846509
     31          1           0       -6.108951    4.134804    0.264794
     32          6           0       -8.194976    2.451187    0.318309
     33          1           0       -8.537142    3.011091    1.183702
     34          1           0       -8.380874    3.039067   -0.577705
     35          1           0       -8.758216    1.527533    0.273817
     36          6           0       -6.515968   -2.589608   -0.931428
     37          1           0       -6.460524   -2.846499   -1.986434
     38          1           0       -5.524243   -2.624805   -0.496396
     39          1           0       -7.140387   -3.318442   -0.421721
     40          6           0       -8.484929   -1.112006   -1.118438
     41          1           0       -8.667734   -1.621246   -2.059984
     42          1           0       -9.125917   -1.545202   -0.353886
     43          1           0       -8.728287   -0.065327   -1.252120
     44          6           0        5.234909    0.301436   -0.192555
     45          6           0        6.482207    0.837696   -0.274291
     46          6           0        6.296202   -0.469144    0.166373
     47          7           0        7.258316    1.842942   -0.551570
     48          7           0        6.771609   -1.601745    0.593499
     49          6           0        6.699705    3.135271   -0.904858
     50          1           0        6.943427    3.382636   -1.935256
     51          1           0        5.623434    3.119821   -0.780416
     52          1           0        7.111169    3.899344   -0.250646
     53          6           0        8.704916    1.757804   -0.486526
     54          1           0        9.127537    2.257490   -1.353238
     55          1           0        9.080352    2.238157    0.414316
     56          1           0        9.022841    0.722915   -0.509579
     57          6           0        5.902929   -2.750782    0.768792
     58          1           0        5.850729   -3.027562    1.819029
     59          1           0        4.908582   -2.521281    0.404440
     60          1           0        6.292204   -3.591280    0.200176
     61          6           0        8.181475   -1.806186    0.866823
     62          1           0        8.283723   -2.375263    1.786100
     63          1           0        8.657299   -2.356258    0.057912
     64          1           0        8.679880   -0.854950    1.006340
 ---------------------------------------------------------------------

 SCF Done:  E(ULC-wHPBE) =  -2023.31919956     A.U. after   33 cycles
 SCF Done:  E(ULC-wHPBE) =  -2023.31921797     a.u. after    2 cycles

 The electronic state is 2-A.
 Alpha  occ. eigenvalues --  -88.56728 -88.51564 -14.43724 -14.43721 -14.43296
 Alpha  occ. eigenvalues --  -14.43077 -10.36479 -10.36426 -10.36030 -10.35937
 Alpha  occ. eigenvalues --  -10.35838 -10.35497 -10.35351 -10.33218 -10.32724
 Alpha  occ. eigenvalues --  -10.32539 -10.32330 -10.31508 -10.31082 -10.31039
 Alpha  occ. eigenvalues --  -10.30944 -10.30872 -10.30805 -10.29744 -10.28908
 Alpha  occ. eigenvalues --  -10.28862 -10.28807 -10.28275 -10.28205 -10.28198
 Alpha  occ. eigenvalues --  -10.27977 -10.27745  -8.15631  -8.10788  -6.17662
 Alpha  occ. eigenvalues --   -6.17254  -6.17090  -6.12923  -6.12441  -6.11960
 Alpha  occ. eigenvalues --   -1.32149  -1.31694  -1.29074  -1.28609  -1.25031
 Alpha  occ. eigenvalues --   -1.24296  -1.23908  -1.22452  -1.17953  -1.15337
 Alpha  occ. eigenvalues --   -1.12441  -1.11485  -1.07986  -1.06770  -1.05033
 Alpha  occ. eigenvalues --   -1.04852  -1.04594  -1.04206  -1.03932  -1.03559
 Alpha  occ. eigenvalues --   -1.02741  -1.02401  -1.00051  -0.98596  -0.97186
 Alpha  occ. eigenvalues --   -0.95746  -0.91169  -0.90761  -0.87833  -0.87565
 Alpha  occ. eigenvalues --   -0.87386  -0.87212  -0.85838  -0.85475  -0.84865
 Alpha  occ. eigenvalues --   -0.83831  -0.83218  -0.82839  -0.82606  -0.81945
 Alpha  occ. eigenvalues --   -0.81746  -0.81135  -0.80430  -0.80240  -0.79974
 Alpha  occ. eigenvalues --   -0.79680  -0.79210  -0.78555  -0.77797  -0.76854
 Alpha  occ. eigenvalues --   -0.75709  -0.74833  -0.74747  -0.74602  -0.74000
 Alpha  occ. eigenvalues --   -0.73802  -0.73669  -0.73191  -0.72999  -0.72508
 Alpha  occ. eigenvalues --   -0.72381  -0.72305  -0.72153  -0.72049  -0.71811
 Alpha  occ. eigenvalues --   -0.71791  -0.71516  -0.70793  -0.70577  -0.69953
 Alpha  occ. eigenvalues --   -0.69660  -0.69402  -0.69111  -0.68795  -0.67805
 Alpha  occ. eigenvalues --   -0.64610  -0.63996  -0.63402  -0.62953  -0.61623
 Alpha  occ. eigenvalues --   -0.59674  -0.56632  -0.56158
 Alpha virt. eigenvalues --   -0.30925  -0.29355  -0.27634  -0.26897  -0.23853
 Alpha virt. eigenvalues --   -0.22216  -0.20729  -0.19965  -0.19639  -0.19308
 Alpha virt. eigenvalues --   -0.18453  -0.17862  -0.17792  -0.16695  -0.15282

  Beta  occ. eigenvalues --  -88.56524 -88.51487 -14.43691 -14.43690 -14.43287
  Beta  occ. eigenvalues --  -14.43071 -10.36480 -10.36429 -10.36036 -10.35941
  Beta  occ. eigenvalues --  -10.35769 -10.35416 -10.35310 -10.33199 -10.32724
  Beta  occ. eigenvalues --  -10.32589 -10.32319 -10.31411 -10.31105 -10.30945
  Beta  occ. eigenvalues --  -10.30921 -10.30702 -10.30661 -10.29793 -10.28908
  Beta  occ. eigenvalues --  -10.28863 -10.28807 -10.28274 -10.28206 -10.28199
  Beta  occ. eigenvalues --  -10.27977 -10.27745  -8.15423  -8.10711  -6.17530
  Beta  occ. eigenvalues --   -6.17010  -6.16644  -6.12868  -6.12385  -6.11764
  Beta  occ. eigenvalues --   -1.32116  -1.31689  -1.29030  -1.28599  -1.24811
  Beta  occ. eigenvalues --   -1.24203  -1.23817  -1.22257  -1.17508  -1.15069
  Beta  occ. eigenvalues --   -1.12261  -1.11370  -1.07530  -1.06360  -1.04994
  Beta  occ. eigenvalues --   -1.04843  -1.04584  -1.04201  -1.03925  -1.03558
  Beta  occ. eigenvalues --   -1.02712  -1.02383  -0.99863  -0.98452  -0.97012
  Beta  occ. eigenvalues --   -0.95519  -0.91030  -0.90661  -0.87791  -0.87540
  Beta  occ. eigenvalues --   -0.87349  -0.87193  -0.85665  -0.85325  -0.84726
  Beta  occ. eigenvalues --   -0.83756  -0.83163  -0.82809  -0.82547  -0.81889
  Beta  occ. eigenvalues --   -0.81707  -0.81102  -0.80346  -0.80104  -0.79951
  Beta  occ. eigenvalues --   -0.79507  -0.79129  -0.78366  -0.77289  -0.76597
  Beta  occ. eigenvalues --   -0.75553  -0.74790  -0.74578  -0.74444  -0.73985
  Beta  occ. eigenvalues --   -0.73767  -0.73517  -0.73043  -0.72851  -0.72456
  Beta  occ. eigenvalues --   -0.72337  -0.72288  -0.72089  -0.71950  -0.71806
  Beta  occ. eigenvalues --   -0.71761  -0.71493  -0.70589  -0.70445  -0.69914
  Beta  occ. eigenvalues --   -0.69632  -0.69350  -0.68902  -0.67280  -0.66734
  Beta  occ. eigenvalues --   -0.64237  -0.63693  -0.63280  -0.62919  -0.58207
  Beta  occ. eigenvalues --   -0.56466  -0.55707
  Beta virt. eigenvalues --   -0.44838  -0.30514  -0.28759  -0.27014  -0.26162
  Beta virt. eigenvalues --   -0.23486  -0.21949  -0.20474  -0.19780  -0.19550
  Beta virt. eigenvalues --   -0.19290  -0.18286  -0.17805  -0.17625  -0.16294

 Mulliken charges and spin densities:
               1          2
     1  C   -0.088100   0.073274
     2  C   -0.289808   0.018644
     3  S    0.333097   0.404935
     4  C    0.080486   0.093346
     5  C   -0.107851   0.029941
     6  C   -0.166730   0.061391
     7  C    0.075859  -0.058105
     8  C   -0.115414  -0.049967
     9  H    0.200690  -0.004883
    10  C   -0.039111   0.001574
    11  C   -0.021046  -0.032549
    12  C   -0.065085   0.082692
    13  C    0.121112   0.005836
    14  H    0.210964   0.000501
    15  H    0.170542   0.000654
    16  H    0.191878  -0.002642
    17  C   -0.050404   0.178971
    18  H    0.224749  -0.001564
    19  H    0.132065  -0.002237
    20  H    0.167601   0.001799
    21  H    0.193984  -0.007369
    22  S    0.167591   0.168259
    23  C   -0.528716  -0.004991
    24  C    0.096059  -0.000293
    25  C    0.081155  -0.001260
    26  N    0.040615   0.015470
    27  N    0.037233   0.016957
    28  C   -0.255608  -0.000480
    29  H    0.197439   0.000984
    30  H    0.134197  -0.000115
    31  H    0.191261   0.000727
    32  C   -0.257859  -0.000645
    33  H    0.188733   0.000686
    34  H    0.200645   0.000926
    35  H    0.152458   0.000084
    36  C   -0.261656  -0.000752
    37  H    0.194924   0.001029
    38  H    0.140908  -0.000068
    39  H    0.194943   0.001025
    40  C   -0.262515  -0.000638
    41  H    0.188156   0.000719
    42  H    0.203472   0.000992
    43  H    0.153062   0.000067
    44  C   -0.485246   0.005622
    45  C    0.093982  -0.003981
    46  C    0.084612  -0.004379
    47  N    0.036304   0.003379
    48  N    0.033218   0.004834
    49  C   -0.257059   0.000297
    50  H    0.196135   0.000303
    51  H    0.137266  -0.000129
    52  H    0.191546  -0.000013
    53  C   -0.260704  -0.000178
    54  H    0.187900   0.000123
    55  H    0.200123   0.000295
    56  H    0.151535   0.000054
    57  C   -0.257433  -0.000160
    58  H    0.191872   0.000252
    59  H    0.128660  -0.000054
    60  H    0.192637   0.000430
    61  C   -0.262640  -0.000179
    62  H    0.185303   0.000222
    63  H    0.201078   0.000322
    64  H    0.154935   0.000015
 Sum of Mulliken charges =   3.00000   1.00000

 Dipole moment (field-independent basis, Debye):
    X=             -0.1366    Y=              2.0616    Z=             -0.2345  Tot=              2.0794
 Quadrupole moment (field-independent basis, Debye-Ang):
   XX=            369.7415   YY=           -121.7030   ZZ=           -172.9541
   XY=             -6.2629   XZ=              3.8091   YZ=             -1.4897

 Normal termination of Gaussian 16 at Wed Jan 27 17:42:12 2021.
