 Gaussian 16, Revision A.03,
 Gaussian 16:  EM64L-G16RevA.03 25-Dec-2016

 ----------------------------------------------------------------------
 #P LC-wHPBE/TZVP iop(3/107=0178000000, 3/108=0178000000) scf=(conver=6
 ,fermi,ndamp=35,noincfock,novaracc,vshift=500,xqc)
 ----------------------------------------------------------------------

 -------------
 H32 C26 S2 N4
 -------------
 Symbolic Z-matrix:
 Charge =  2 Multiplicity = 1

                         Standard orientation:
 ---------------------------------------------------------------------
 Center     Atomic      Atomic             Coordinates (Angstroms)
 Number     Number       Type             X           Y           Z
 ---------------------------------------------------------------------
      1          6           0        2.928949   -0.209586    0.466429
      2          6           0        1.563914   -0.061175    0.303790
      3         16           0        0.549634   -0.929940    1.465043
      4          6           0        1.080492    0.744795   -0.706590
      5          6           0       -1.720975   -1.178026   -0.124019
      6          6           0       -1.104728   -0.556786    0.961278
      7          6           0        3.804439    0.453059   -0.373760
      8          6           0        1.957571    1.398720   -1.546095
      9          1           0        0.017059    0.867388   -0.843825
     10          6           0       -3.055310   -0.905897   -0.375396
     11          6           0       -1.834379    0.303673    1.763498
     12          6           0       -3.157322    0.570140    1.506853
     13          6           0       -3.772824   -0.043708    0.429435
     14          1           0       -3.535939   -1.385849   -1.215765
     15          1           0       -1.346414    0.763075    2.610001
     16          1           0       -3.711030    1.227115    2.160412
     17          6           0        3.316329    1.262630   -1.386512
     18          1           0        3.309964   -0.825983    1.268943
     19          1           0        0.121390   -2.546838   -0.437504
     20          1           0        1.570409    2.020933   -2.339064
     21          1           0        3.993957    1.766527   -2.059405
     22         16           0       -0.923466   -2.279512   -1.229412
     23          6           0       -5.179371    0.186625    0.159910
     24          6           0       -6.258258    1.013194    0.194238
     25          6           0       -6.373984   -0.291545   -0.281001
     26          7           0       -6.778879    2.172200    0.466391
     27          7           0       -7.085837   -1.264246   -0.765069
     28          6           0       -5.943792    3.274283    0.907684
     29          1           0       -6.187951    3.545500    1.931936
     30          1           0       -4.898805    2.994168    0.846509
     31          1           0       -6.108951    4.134804    0.264794
     32          6           0       -8.194976    2.451187    0.318309
     33          1           0       -8.537142    3.011091    1.183702
     34          1           0       -8.380874    3.039067   -0.577705
     35          1           0       -8.758216    1.527533    0.273817
     36          6           0       -6.515968   -2.589608   -0.931428
     37          1           0       -6.460524   -2.846499   -1.986434
     38          1           0       -5.524243   -2.624805   -0.496396
     39          1           0       -7.140387   -3.318442   -0.421721
     40          6           0       -8.484929   -1.112006   -1.118438
     41          1           0       -8.667734   -1.621246   -2.059984
     42          1           0       -9.125917   -1.545202   -0.353886
     43          1           0       -8.728287   -0.065327   -1.252120
     44          6           0        5.234909    0.301436   -0.192555
     45          6           0        6.482207    0.837696   -0.274291
     46          6           0        6.296202   -0.469144    0.166373
     47          7           0        7.258316    1.842942   -0.551570
     48          7           0        6.771609   -1.601745    0.593499
     49          6           0        6.699705    3.135271   -0.904858
     50          1           0        6.943427    3.382636   -1.935256
     51          1           0        5.623434    3.119821   -0.780416
     52          1           0        7.111169    3.899344   -0.250646
     53          6           0        8.704916    1.757804   -0.486526
     54          1           0        9.127537    2.257490   -1.353238
     55          1           0        9.080352    2.238157    0.414316
     56          1           0        9.022841    0.722915   -0.509579
     57          6           0        5.902929   -2.750782    0.768792
     58          1           0        5.850729   -3.027562    1.819029
     59          1           0        4.908582   -2.521281    0.404440
     60          1           0        6.292204   -3.591280    0.200176
     61          6           0        8.181475   -1.806186    0.866823
     62          1           0        8.283723   -2.375263    1.786100
     63          1           0        8.657299   -2.356258    0.057912
     64          1           0        8.679880   -0.854950    1.006340
 ---------------------------------------------------------------------

 SCF Done:  E(RLC-wHPBE) =  -2023.74235605     A.U. after   16 cycles

 The electronic state is 1-A.
 Alpha  occ. eigenvalues --  -88.36918 -88.35570 -14.33931 -14.33874 -14.33489
 Alpha  occ. eigenvalues --  -14.33433 -10.26347 -10.26293 -10.25867 -10.25815
 Alpha  occ. eigenvalues --  -10.22533 -10.22089 -10.20962 -10.20210 -10.19956
 Alpha  occ. eigenvalues --  -10.19945 -10.19899 -10.19899 -10.19898 -10.19711
 Alpha  occ. eigenvalues --  -10.19638 -10.19589 -10.19567 -10.19389 -10.19138
 Alpha  occ. eigenvalues --  -10.17670 -10.17158 -10.17151 -10.17098 -10.16364
 Alpha  occ. eigenvalues --  -10.16206 -10.16007  -7.96109  -7.94918  -5.98353
 Alpha  occ. eigenvalues --   -5.97836  -5.97117  -5.97102  -5.96633  -5.95934
 Alpha  occ. eigenvalues --   -1.22317  -1.21886  -1.19557  -1.19139  -1.14418
 Alpha  occ. eigenvalues --   -1.13992  -1.09810  -1.08210  -1.02889  -1.00577
 Alpha  occ. eigenvalues --   -0.98553  -0.97611  -0.96129  -0.95810  -0.95752
 Alpha  occ. eigenvalues --   -0.95462  -0.94693  -0.94311  -0.93798  -0.93262
 Alpha  occ. eigenvalues --   -0.93008  -0.91860  -0.86459  -0.85110  -0.83309
 Alpha  occ. eigenvalues --   -0.81967  -0.78851  -0.78742  -0.78473  -0.78205
 Alpha  occ. eigenvalues --   -0.77639  -0.77145  -0.74195  -0.73870  -0.73743
 Alpha  occ. eigenvalues --   -0.73452  -0.73114  -0.72607  -0.71584  -0.71478
 Alpha  occ. eigenvalues --   -0.71191  -0.71091  -0.70073  -0.69032  -0.66776
 Alpha  occ. eigenvalues --   -0.66532  -0.66091  -0.66001  -0.65883  -0.65624
 Alpha  occ. eigenvalues --   -0.65382  -0.65251  -0.65144  -0.64539  -0.64136
 Alpha  occ. eigenvalues --   -0.63929  -0.63826  -0.63615  -0.63317  -0.63175
 Alpha  occ. eigenvalues --   -0.63085  -0.62775  -0.61966  -0.61795  -0.61502
 Alpha  occ. eigenvalues --   -0.61410  -0.60823  -0.59902  -0.59811  -0.57932
 Alpha  occ. eigenvalues --   -0.57432  -0.56380  -0.55840  -0.54389  -0.54178
 Alpha  occ. eigenvalues --   -0.53973  -0.53388  -0.51305  -0.50970  -0.46856
 Alpha  occ. eigenvalues --   -0.46382  -0.44951  -0.44548
 Alpha virt. eigenvalues --   -0.18965  -0.17722  -0.14853  -0.13873  -0.11227
 Alpha virt. eigenvalues --   -0.10979  -0.10628  -0.10236  -0.09549  -0.09293
 Alpha virt. eigenvalues --   -0.09018  -0.07497  -0.06617  -0.06253  -0.05361

 Mulliken charges:
               1
     1  C   -0.122048
     2  C   -0.246482
     3  S    0.087450
     4  C    0.058656
     5  C   -0.076207
     6  C   -0.150266
     7  C    0.100408
     8  C   -0.129772
     9  H    0.175848
    10  C   -0.077807
    11  C   -0.048508
    12  C   -0.093064
    13  C    0.133520
    14  H    0.176765
    15  H    0.141260
    16  H    0.156264
    17  C   -0.106881
    18  H    0.186000
    19  H    0.127623
    20  H    0.130172
    21  H    0.154695
    22  S    0.010957
    23  C   -0.510471
    24  C    0.087429
    25  C    0.071944
    26  N    0.024948
    27  N    0.021943
    28  C   -0.258882
    29  H    0.180361
    30  H    0.152188
    31  H    0.173784
    32  C   -0.257486
    33  H    0.174783
    34  H    0.185070
    35  H    0.146993
    36  C   -0.263519
    37  H    0.180096
    38  H    0.159175
    39  H    0.176102
    40  C   -0.262198
    41  H    0.175209
    42  H    0.187009
    43  H    0.147317
    44  C   -0.470414
    45  C    0.086600
    46  C    0.078781
    47  N    0.021762
    48  N    0.020523
    49  C   -0.259987
    50  H    0.178884
    51  H    0.155588
    52  H    0.173440
    53  C   -0.260163
    54  H    0.174155
    55  H    0.184601
    56  H    0.146881
    57  C   -0.260406
    58  H    0.177860
    59  H    0.152650
    60  H    0.174037
    61  C   -0.262200
    62  H    0.173312
    63  H    0.185180
    64  H    0.148540
 Sum of Mulliken charges =   2.00000

 Dipole moment (field-independent basis, Debye):
    X=             -0.3845    Y=              3.2323    Z=             -0.5874  Tot=              3.3077
 Quadrupole moment (field-independent basis, Debye-Ang):
   XX=            270.0367   YY=           -143.0310   ZZ=           -187.1274
   XY=             -8.5102   XZ=              5.3750   YZ=             -1.2366

 Normal termination of Gaussian 16 at Wed Jan 27 08:44:23 2021.
