 Gaussian 16, Revision A.03,
 Gaussian 16:  EM64L-G16RevA.03 25-Dec-2016

 ----------------------------------------------------------------------
 #P LC-wHPBE/TZVP iop(3/107=0328100000, 3/108=0328100000) scf=(conver=6
 ,fermi,ndamp=35,noincfock,novaracc,vshift=500,xqc)
 ----------------------------------------------------------------------

 -------------
 H32 C26 S2 N4
 -------------
 Symbolic Z-matrix:
 Charge =  2 Multiplicity = 1

                         Standard orientation:
 ---------------------------------------------------------------------
 Center     Atomic      Atomic             Coordinates (Angstroms)
 Number     Number       Type             X           Y           Z
 ---------------------------------------------------------------------
      1          6           0        2.928949   -0.209586    0.466429
      2          6           0        1.563914   -0.061175    0.303790
      3         16           0        0.549634   -0.929940    1.465043
      4          6           0        1.080492    0.744795   -0.706590
      5          6           0       -1.720975   -1.178026   -0.124019
      6          6           0       -1.104728   -0.556786    0.961278
      7          6           0        3.804439    0.453059   -0.373760
      8          6           0        1.957571    1.398720   -1.546095
      9          1           0        0.017059    0.867388   -0.843825
     10          6           0       -3.055310   -0.905897   -0.375396
     11          6           0       -1.834379    0.303673    1.763498
     12          6           0       -3.157322    0.570140    1.506853
     13          6           0       -3.772824   -0.043708    0.429435
     14          1           0       -3.535939   -1.385849   -1.215765
     15          1           0       -1.346414    0.763075    2.610001
     16          1           0       -3.711030    1.227115    2.160412
     17          6           0        3.316329    1.262630   -1.386512
     18          1           0        3.309964   -0.825983    1.268943
     19          1           0        0.121390   -2.546838   -0.437504
     20          1           0        1.570409    2.020933   -2.339064
     21          1           0        3.993957    1.766527   -2.059405
     22         16           0       -0.923466   -2.279512   -1.229412
     23          6           0       -5.179371    0.186625    0.159910
     24          6           0       -6.258258    1.013194    0.194238
     25          6           0       -6.373984   -0.291545   -0.281001
     26          7           0       -6.778879    2.172200    0.466391
     27          7           0       -7.085837   -1.264246   -0.765069
     28          6           0       -5.943792    3.274283    0.907684
     29          1           0       -6.187951    3.545500    1.931936
     30          1           0       -4.898805    2.994168    0.846509
     31          1           0       -6.108951    4.134804    0.264794
     32          6           0       -8.194976    2.451187    0.318309
     33          1           0       -8.537142    3.011091    1.183702
     34          1           0       -8.380874    3.039067   -0.577705
     35          1           0       -8.758216    1.527533    0.273817
     36          6           0       -6.515968   -2.589608   -0.931428
     37          1           0       -6.460524   -2.846499   -1.986434
     38          1           0       -5.524243   -2.624805   -0.496396
     39          1           0       -7.140387   -3.318442   -0.421721
     40          6           0       -8.484929   -1.112006   -1.118438
     41          1           0       -8.667734   -1.621246   -2.059984
     42          1           0       -9.125917   -1.545202   -0.353886
     43          1           0       -8.728287   -0.065327   -1.252120
     44          6           0        5.234909    0.301436   -0.192555
     45          6           0        6.482207    0.837696   -0.274291
     46          6           0        6.296202   -0.469144    0.166373
     47          7           0        7.258316    1.842942   -0.551570
     48          7           0        6.771609   -1.601745    0.593499
     49          6           0        6.699705    3.135271   -0.904858
     50          1           0        6.943427    3.382636   -1.935256
     51          1           0        5.623434    3.119821   -0.780416
     52          1           0        7.111169    3.899344   -0.250646
     53          6           0        8.704916    1.757804   -0.486526
     54          1           0        9.127537    2.257490   -1.353238
     55          1           0        9.080352    2.238157    0.414316
     56          1           0        9.022841    0.722915   -0.509579
     57          6           0        5.902929   -2.750782    0.768792
     58          1           0        5.850729   -3.027562    1.819029
     59          1           0        4.908582   -2.521281    0.404440
     60          1           0        6.292204   -3.591280    0.200176
     61          6           0        8.181475   -1.806186    0.866823
     62          1           0        8.283723   -2.375263    1.786100
     63          1           0        8.657299   -2.356258    0.057912
     64          1           0        8.679880   -0.854950    1.006340
 ---------------------------------------------------------------------

 SCF Done:  E(RLC-wHPBE) =  -2024.01579498     A.U. after   16 cycles

 The electronic state is 1-A.
 Alpha  occ. eigenvalues --  -88.45076 -88.43623 -14.42027 -14.41963 -14.41589
 Alpha  occ. eigenvalues --  -14.41539 -10.35584 -10.35528 -10.35111 -10.35056
 Alpha  occ. eigenvalues --  -10.31389 -10.30968 -10.29613 -10.28838 -10.28650
 Alpha  occ. eigenvalues --  -10.28563 -10.28316 -10.28270 -10.28251 -10.28058
 Alpha  occ. eigenvalues --  -10.28002 -10.27955 -10.27937 -10.27805 -10.27770
 Alpha  occ. eigenvalues --  -10.26242 -10.25777 -10.25739 -10.25691 -10.24998
 Alpha  occ. eigenvalues --  -10.24781 -10.24549  -8.04483  -8.03180  -6.06466
 Alpha  occ. eigenvalues --   -6.05908  -6.05129  -6.05118  -6.04592  -6.03854
 Alpha  occ. eigenvalues --   -1.31308  -1.30886  -1.28122  -1.27715  -1.22894
 Alpha  occ. eigenvalues --   -1.22477  -1.18771  -1.17119  -1.11459  -1.08946
 Alpha  occ. eigenvalues --   -1.06852  -1.05917  -1.04061  -1.03688  -1.03652
 Alpha  occ. eigenvalues --   -1.03321  -1.02331  -1.01958  -1.01407  -1.00863
 Alpha  occ. eigenvalues --   -1.00644  -0.99522  -0.93869  -0.92329  -0.90454
 Alpha  occ. eigenvalues --   -0.89074  -0.85414  -0.85228  -0.84954  -0.84651
 Alpha  occ. eigenvalues --   -0.84089  -0.83616  -0.80651  -0.80385  -0.80209
 Alpha  occ. eigenvalues --   -0.79877  -0.79145  -0.78581  -0.77798  -0.77587
 Alpha  occ. eigenvalues --   -0.77454  -0.77224  -0.76092  -0.74877  -0.72646
 Alpha  occ. eigenvalues --   -0.72297  -0.71929  -0.71814  -0.71432  -0.71232
 Alpha  occ. eigenvalues --   -0.70932  -0.70885  -0.70781  -0.70166  -0.69673
 Alpha  occ. eigenvalues --   -0.69451  -0.69367  -0.69158  -0.68892  -0.68644
 Alpha  occ. eigenvalues --   -0.68431  -0.68134  -0.67386  -0.67074  -0.66964
 Alpha  occ. eigenvalues --   -0.66732  -0.66145  -0.65070  -0.64969  -0.62976
 Alpha  occ. eigenvalues --   -0.62358  -0.61032  -0.60495  -0.59217  -0.58817
 Alpha  occ. eigenvalues --   -0.58675  -0.57785  -0.55188  -0.54913  -0.50356
 Alpha  occ. eigenvalues --   -0.49903  -0.48447  -0.48010
 Alpha virt. eigenvalues --   -0.16778  -0.15436  -0.12384  -0.11349  -0.08134
 Alpha virt. eigenvalues --   -0.07823  -0.07536  -0.07415  -0.06946  -0.06200
 Alpha virt. eigenvalues --   -0.05823  -0.04455  -0.04123  -0.03698  -0.02575

 Mulliken charges:
               1
     1  C   -0.134348
     2  C   -0.247323
     3  S    0.104401
     4  C    0.027268
     5  C   -0.079156
     6  C   -0.206072
     7  C    0.106169
     8  C   -0.136606
     9  H    0.196536
    10  C   -0.085170
    11  C   -0.049335
    12  C   -0.115358
    13  C    0.134850
    14  H    0.201773
    15  H    0.165002
    16  H    0.179693
    17  C   -0.131616
    18  H    0.209476
    19  H    0.131253
    20  H    0.151144
    21  H    0.178190
    22  S    0.011834
    23  C   -0.476114
    24  C    0.085673
    25  C    0.071695
    26  N   -0.001285
    27  N   -0.004165
    28  C   -0.252793
    29  H    0.181372
    30  H    0.148435
    31  H    0.172884
    32  C   -0.250218
    33  H    0.173812
    34  H    0.186356
    35  H    0.142338
    36  C   -0.257178
    37  H    0.181342
    38  H    0.155030
    39  H    0.175127
    40  C   -0.255168
    41  H    0.174283
    42  H    0.188294
    43  H    0.142835
    44  C   -0.442215
    45  C    0.085258
    46  C    0.077936
    47  N   -0.004404
    48  N   -0.005723
    49  C   -0.254024
    50  H    0.180002
    51  H    0.151889
    52  H    0.172597
    53  C   -0.252954
    54  H    0.173211
    55  H    0.185961
    56  H    0.142328
    57  C   -0.253761
    58  H    0.179060
    59  H    0.148599
    60  H    0.173177
    61  C   -0.255109
    62  H    0.172411
    63  H    0.186553
    64  H    0.144053
 Sum of Mulliken charges =   2.00000

 Dipole moment (field-independent basis, Debye):
    X=             -0.3414    Y=              3.3999    Z=             -0.5736  Tot=              3.4648
 Quadrupole moment (field-independent basis, Debye-Ang):
   XX=            270.7190   YY=           -143.0929   ZZ=           -186.5896
   XY=             -8.5974   XZ=              5.0639   YZ=             -1.4017

 Normal termination of Gaussian 16 at Wed Jan 27 02:14:55 2021.
