 Gaussian 16, Revision A.03,
 Gaussian 16:  EM64L-G16RevA.03 25-Dec-2016

 ----------------------------------------------------------------------
 #P LC-wHPBE/TZVP iop(3/107=0221900000, 3/108=0221900000) scf=(conver=6
 ,fermi,ndamp=35,noincfock,novaracc,vshift=500,xqc)
 ----------------------------------------------------------------------

 -------------
 H32 C26 S2 N4
 -------------
 Symbolic Z-matrix:
 Charge =  2 Multiplicity = 1

                         Standard orientation:
 ---------------------------------------------------------------------
 Center     Atomic      Atomic             Coordinates (Angstroms)
 Number     Number       Type             X           Y           Z
 ---------------------------------------------------------------------
      1          6           0        2.928949   -0.209586    0.466429
      2          6           0        1.563914   -0.061175    0.303790
      3         16           0        0.549634   -0.929940    1.465043
      4          6           0        1.080492    0.744795   -0.706590
      5          6           0       -1.720975   -1.178026   -0.124019
      6          6           0       -1.104728   -0.556786    0.961278
      7          6           0        3.804439    0.453059   -0.373760
      8          6           0        1.957571    1.398720   -1.546095
      9          1           0        0.017059    0.867388   -0.843825
     10          6           0       -3.055310   -0.905897   -0.375396
     11          6           0       -1.834379    0.303673    1.763498
     12          6           0       -3.157322    0.570140    1.506853
     13          6           0       -3.772824   -0.043708    0.429435
     14          1           0       -3.535939   -1.385849   -1.215765
     15          1           0       -1.346414    0.763075    2.610001
     16          1           0       -3.711030    1.227115    2.160412
     17          6           0        3.316329    1.262630   -1.386512
     18          1           0        3.309964   -0.825983    1.268943
     19          1           0        0.121390   -2.546838   -0.437504
     20          1           0        1.570409    2.020933   -2.339064
     21          1           0        3.993957    1.766527   -2.059405
     22         16           0       -0.923466   -2.279512   -1.229412
     23          6           0       -5.179371    0.186625    0.159910
     24          6           0       -6.258258    1.013194    0.194238
     25          6           0       -6.373984   -0.291545   -0.281001
     26          7           0       -6.778879    2.172200    0.466391
     27          7           0       -7.085837   -1.264246   -0.765069
     28          6           0       -5.943792    3.274283    0.907684
     29          1           0       -6.187951    3.545500    1.931936
     30          1           0       -4.898805    2.994168    0.846509
     31          1           0       -6.108951    4.134804    0.264794
     32          6           0       -8.194976    2.451187    0.318309
     33          1           0       -8.537142    3.011091    1.183702
     34          1           0       -8.380874    3.039067   -0.577705
     35          1           0       -8.758216    1.527533    0.273817
     36          6           0       -6.515968   -2.589608   -0.931428
     37          1           0       -6.460524   -2.846499   -1.986434
     38          1           0       -5.524243   -2.624805   -0.496396
     39          1           0       -7.140387   -3.318442   -0.421721
     40          6           0       -8.484929   -1.112006   -1.118438
     41          1           0       -8.667734   -1.621246   -2.059984
     42          1           0       -9.125917   -1.545202   -0.353886
     43          1           0       -8.728287   -0.065327   -1.252120
     44          6           0        5.234909    0.301436   -0.192555
     45          6           0        6.482207    0.837696   -0.274291
     46          6           0        6.296202   -0.469144    0.166373
     47          7           0        7.258316    1.842942   -0.551570
     48          7           0        6.771609   -1.601745    0.593499
     49          6           0        6.699705    3.135271   -0.904858
     50          1           0        6.943427    3.382636   -1.935256
     51          1           0        5.623434    3.119821   -0.780416
     52          1           0        7.111169    3.899344   -0.250646
     53          6           0        8.704916    1.757804   -0.486526
     54          1           0        9.127537    2.257490   -1.353238
     55          1           0        9.080352    2.238157    0.414316
     56          1           0        9.022841    0.722915   -0.509579
     57          6           0        5.902929   -2.750782    0.768792
     58          1           0        5.850729   -3.027562    1.819029
     59          1           0        4.908582   -2.521281    0.404440
     60          1           0        6.292204   -3.591280    0.200176
     61          6           0        8.181475   -1.806186    0.866823
     62          1           0        8.283723   -2.375263    1.786100
     63          1           0        8.657299   -2.356258    0.057912
     64          1           0        8.679880   -0.854950    1.006340
 ---------------------------------------------------------------------

 SCF Done:  E(RLC-wHPBE) =  -2023.83155385     A.U. after   16 cycles

 The electronic state is 1-A.
 Alpha  occ. eigenvalues --  -88.39282 -88.37903 -14.36330 -14.36270 -14.35891
 Alpha  occ. eigenvalues --  -14.35837 -10.29053 -10.28999 -10.28577 -10.28524
 Alpha  occ. eigenvalues --  -10.25127 -10.24692 -10.23491 -10.22731 -10.22491
 Alpha  occ. eigenvalues --  -10.22436 -10.22410 -10.22356 -10.22351 -10.22161
 Alpha  occ. eigenvalues --  -10.22095 -10.22045 -10.22025 -10.21851 -10.21674
 Alpha  occ. eigenvalues --  -10.20175 -10.19674 -10.19665 -10.19616 -10.18894
 Alpha  occ. eigenvalues --  -10.18713 -10.18506  -7.98525  -7.97299  -6.00720
 Alpha  occ. eigenvalues --   -6.00192  -5.99449  -5.99443  -5.98955  -5.98242
 Alpha  occ. eigenvalues --   -1.24991  -1.24564  -1.22129  -1.21717  -1.16996
 Alpha  occ. eigenvalues --   -1.16575  -1.12479  -1.10875  -1.05491  -1.03127
 Alpha  occ. eigenvalues --   -1.01100  -1.00157  -0.98593  -0.98252  -0.98218
 Alpha  occ. eigenvalues --   -0.97910  -0.97091  -0.96713  -0.96181  -0.95637
 Alpha  occ. eigenvalues --   -0.95414  -0.94264  -0.88807  -0.87411  -0.85589
 Alpha  occ. eigenvalues --   -0.84244  -0.80989  -0.80862  -0.80592  -0.80315
 Alpha  occ. eigenvalues --   -0.79758  -0.79272  -0.76266  -0.76072  -0.75784
 Alpha  occ. eigenvalues --   -0.75670  -0.75109  -0.74590  -0.73618  -0.73525
 Alpha  occ. eigenvalues --   -0.73258  -0.73131  -0.72065  -0.70975  -0.68738
 Alpha  occ. eigenvalues --   -0.68484  -0.68080  -0.67945  -0.67740  -0.67516
 Alpha  occ. eigenvalues --   -0.67243  -0.67165  -0.67045  -0.66449  -0.65999
 Alpha  occ. eigenvalues --   -0.65786  -0.65692  -0.65480  -0.65190  -0.65048
 Alpha  occ. eigenvalues --   -0.64892  -0.64585  -0.63800  -0.63583  -0.63354
 Alpha  occ. eigenvalues --   -0.63223  -0.62618  -0.61650  -0.61560  -0.59629
 Alpha  occ. eigenvalues --   -0.59104  -0.57982  -0.57444  -0.56059  -0.55786
 Alpha  occ. eigenvalues --   -0.55650  -0.54951  -0.52713  -0.52413  -0.48099
 Alpha  occ. eigenvalues --   -0.47637  -0.46209  -0.45791
 Alpha virt. eigenvalues --   -0.18077  -0.16801  -0.13843  -0.12849  -0.10046
 Alpha virt. eigenvalues --   -0.09781  -0.09456  -0.09123  -0.08500  -0.08102
 Alpha virt. eigenvalues --   -0.07797  -0.06289  -0.05604  -0.05231  -0.04240

 Mulliken charges:
               1
     1  C   -0.126290
     2  C   -0.244024
     3  S    0.094490
     4  C    0.049685
     5  C   -0.075132
     6  C   -0.167925
     7  C    0.100539
     8  C   -0.130985
     9  H    0.180428
    10  C   -0.079986
    11  C   -0.049279
    12  C   -0.097761
    13  C    0.131293
    14  H    0.182895
    15  H    0.146950
    16  H    0.161630
    17  C   -0.112455
    18  H    0.191540
    19  H    0.128590
    20  H    0.134866
    21  H    0.160057
    22  S    0.012224
    23  C   -0.504042
    24  C    0.085820
    25  C    0.070827
    26  N    0.020580
    27  N    0.017572
    28  C   -0.253701
    29  H    0.179567
    30  H    0.150089
    31  H    0.172534
    32  C   -0.252180
    33  H    0.173570
    34  H    0.184341
    35  H    0.144755
    36  C   -0.258216
    37  H    0.179364
    38  H    0.156936
    39  H    0.174826
    40  C   -0.256977
    41  H    0.174021
    42  H    0.186281
    43  H    0.145138
    44  C   -0.465824
    45  C    0.085211
    46  C    0.077601
    47  N    0.017391
    48  N    0.016108
    49  C   -0.254822
    50  H    0.178125
    51  H    0.153492
    52  H    0.172208
    53  C   -0.254858
    54  H    0.172957
    55  H    0.183898
    56  H    0.144666
    57  C   -0.255006
    58  H    0.177122
    59  H    0.150457
    60  H    0.172791
    61  C   -0.256933
    62  H    0.172133
    63  H    0.184478
    64  H    0.146348
 Sum of Mulliken charges =   2.00000

 Dipole moment (field-independent basis, Debye):
    X=             -0.3677    Y=              3.2892    Z=             -0.5823  Tot=              3.3605
 Quadrupole moment (field-independent basis, Debye-Ang):
   XX=            270.2441   YY=           -143.0908   ZZ=           -186.9875
   XY=             -8.5340   XZ=              5.2672   YZ=             -1.2918

 Normal termination of Gaussian 16 at Wed Jan 27 00:22:52 2021.
