 Gaussian 16, Revision A.03,
 Gaussian 16:  EM64L-G16RevA.03 25-Dec-2016

 ----------------------------------------------------------------------
 #P LC-wHPBE/TZVP iop(3/107=0156200000, 3/108=0156200000) scf=(conver=6
 ,fermi,ndamp=35,noincfock,novaracc,vshift=500,xqc)
 ----------------------------------------------------------------------

 -------------
 H32 C26 S2 N4
 -------------
 Symbolic Z-matrix:
 Charge =  3 Multiplicity = 2

                         Standard orientation:
 ---------------------------------------------------------------------
 Center     Atomic      Atomic             Coordinates (Angstroms)
 Number     Number       Type             X           Y           Z
 ---------------------------------------------------------------------
      1          6           0        2.928949   -0.209586    0.466429
      2          6           0        1.563914   -0.061175    0.303790
      3         16           0        0.549634   -0.929940    1.465043
      4          6           0        1.080492    0.744795   -0.706590
      5          6           0       -1.720975   -1.178026   -0.124019
      6          6           0       -1.104728   -0.556786    0.961278
      7          6           0        3.804439    0.453059   -0.373760
      8          6           0        1.957571    1.398720   -1.546095
      9          1           0        0.017059    0.867388   -0.843825
     10          6           0       -3.055310   -0.905897   -0.375396
     11          6           0       -1.834379    0.303673    1.763498
     12          6           0       -3.157322    0.570140    1.506853
     13          6           0       -3.772824   -0.043708    0.429435
     14          1           0       -3.535939   -1.385849   -1.215765
     15          1           0       -1.346414    0.763075    2.610001
     16          1           0       -3.711030    1.227115    2.160412
     17          6           0        3.316329    1.262630   -1.386512
     18          1           0        3.309964   -0.825983    1.268943
     19          1           0        0.121390   -2.546838   -0.437504
     20          1           0        1.570409    2.020933   -2.339064
     21          1           0        3.993957    1.766527   -2.059405
     22         16           0       -0.923466   -2.279512   -1.229412
     23          6           0       -5.179371    0.186625    0.159910
     24          6           0       -6.258258    1.013194    0.194238
     25          6           0       -6.373984   -0.291545   -0.281001
     26          7           0       -6.778879    2.172200    0.466391
     27          7           0       -7.085837   -1.264246   -0.765069
     28          6           0       -5.943792    3.274283    0.907684
     29          1           0       -6.187951    3.545500    1.931936
     30          1           0       -4.898805    2.994168    0.846509
     31          1           0       -6.108951    4.134804    0.264794
     32          6           0       -8.194976    2.451187    0.318309
     33          1           0       -8.537142    3.011091    1.183702
     34          1           0       -8.380874    3.039067   -0.577705
     35          1           0       -8.758216    1.527533    0.273817
     36          6           0       -6.515968   -2.589608   -0.931428
     37          1           0       -6.460524   -2.846499   -1.986434
     38          1           0       -5.524243   -2.624805   -0.496396
     39          1           0       -7.140387   -3.318442   -0.421721
     40          6           0       -8.484929   -1.112006   -1.118438
     41          1           0       -8.667734   -1.621246   -2.059984
     42          1           0       -9.125917   -1.545202   -0.353886
     43          1           0       -8.728287   -0.065327   -1.252120
     44          6           0        5.234909    0.301436   -0.192555
     45          6           0        6.482207    0.837696   -0.274291
     46          6           0        6.296202   -0.469144    0.166373
     47          7           0        7.258316    1.842942   -0.551570
     48          7           0        6.771609   -1.601745    0.593499
     49          6           0        6.699705    3.135271   -0.904858
     50          1           0        6.943427    3.382636   -1.935256
     51          1           0        5.623434    3.119821   -0.780416
     52          1           0        7.111169    3.899344   -0.250646
     53          6           0        8.704916    1.757804   -0.486526
     54          1           0        9.127537    2.257490   -1.353238
     55          1           0        9.080352    2.238157    0.414316
     56          1           0        9.022841    0.722915   -0.509579
     57          6           0        5.902929   -2.750782    0.768792
     58          1           0        5.850729   -3.027562    1.819029
     59          1           0        4.908582   -2.521281    0.404440
     60          1           0        6.292204   -3.591280    0.200176
     61          6           0        8.181475   -1.806186    0.866823
     62          1           0        8.283723   -2.375263    1.786100
     63          1           0        8.657299   -2.356258    0.057912
     64          1           0        8.679880   -0.854950    1.006340
 ---------------------------------------------------------------------

 SCF Done:  E(ULC-wHPBE) =  -2023.25300411     A.U. after   33 cycles
 SCF Done:  E(ULC-wHPBE) =  -2023.25306052     a.u. after    3 cycles

 The electronic state is 2-A.
 Alpha  occ. eigenvalues --  -88.53801 -88.49679 -14.42108 -14.42095 -14.41475
 Alpha  occ. eigenvalues --  -14.41252 -10.34565 -10.34513 -10.33912 -10.33820
 Alpha  occ. eigenvalues --  -10.33715 -10.33328 -10.32877 -10.31202 -10.30941
 Alpha  occ. eigenvalues --  -10.30322 -10.30270 -10.29011 -10.28985 -10.28940
 Alpha  occ. eigenvalues --  -10.28895 -10.28708 -10.28543 -10.27477 -10.27091
 Alpha  occ. eigenvalues --  -10.27043 -10.26956 -10.26462 -10.26461 -10.26343
 Alpha  occ. eigenvalues --  -10.26084 -10.25854  -8.12712  -8.08872  -6.14803
 Alpha  occ. eigenvalues --   -6.14338  -6.14197  -6.11030  -6.10555  -6.10109
 Alpha  occ. eigenvalues --   -1.30280  -1.29626  -1.27286  -1.26633  -1.22885
 Alpha  occ. eigenvalues --   -1.22228  -1.21863  -1.20103  -1.15535  -1.13215
 Alpha  occ. eigenvalues --   -1.10206  -1.09134  -1.05751  -1.04703  -1.03234
 Alpha  occ. eigenvalues --   -1.02893  -1.02838  -1.02281  -1.02204  -1.01651
 Alpha  occ. eigenvalues --   -1.01035  -1.00515  -0.97931  -0.96532  -0.95216
 Alpha  occ. eigenvalues --   -0.93599  -0.89242  -0.88833  -0.86238  -0.85845
 Alpha  occ. eigenvalues --   -0.85771  -0.85450  -0.84071  -0.83541  -0.83009
 Alpha  occ. eigenvalues --   -0.82021  -0.81606  -0.81123  -0.80840  -0.80317
 Alpha  occ. eigenvalues --   -0.80199  -0.79470  -0.78877  -0.78517  -0.78294
 Alpha  occ. eigenvalues --   -0.77989  -0.77440  -0.76681  -0.75758  -0.75155
 Alpha  occ. eigenvalues --   -0.74156  -0.73216  -0.73196  -0.72964  -0.72581
 Alpha  occ. eigenvalues --   -0.72232  -0.72123  -0.71437  -0.71341  -0.71089
 Alpha  occ. eigenvalues --   -0.70926  -0.70822  -0.70751  -0.70494  -0.70463
 Alpha  occ. eigenvalues --   -0.70254  -0.69998  -0.69166  -0.69070  -0.68609
 Alpha  occ. eigenvalues --   -0.68160  -0.68056  -0.67445  -0.67049  -0.66344
 Alpha  occ. eigenvalues --   -0.63262  -0.62464  -0.62207  -0.61582  -0.59814
 Alpha  occ. eigenvalues --   -0.58510  -0.55758  -0.55079
 Alpha virt. eigenvalues --   -0.31692  -0.29973  -0.28418  -0.27602  -0.24681
 Alpha virt. eigenvalues --   -0.23180  -0.21730  -0.20987  -0.20889  -0.20378
 Alpha virt. eigenvalues --   -0.19431  -0.18828  -0.18752  -0.17641  -0.16157

  Beta  occ. eigenvalues --  -88.53625 -88.49598 -14.42060 -14.42051 -14.41450
  Beta  occ. eigenvalues --  -14.41232 -10.34568 -10.34518 -10.33919 -10.33825
  Beta  occ. eigenvalues --  -10.33652 -10.33236 -10.32832 -10.31186 -10.30934
  Beta  occ. eigenvalues --  -10.30318 -10.30297 -10.29009 -10.28943 -10.28940
  Beta  occ. eigenvalues --  -10.28777 -10.28596 -10.28344 -10.27518 -10.27092
  Beta  occ. eigenvalues --  -10.27044 -10.26956 -10.26463 -10.26462 -10.26343
  Beta  occ. eigenvalues --  -10.26084 -10.25855  -8.12534  -8.08791  -6.14689
  Beta  occ. eigenvalues --   -6.14176  -6.13763  -6.10973  -6.10496  -6.09900
  Beta  occ. eigenvalues --   -1.30232  -1.29605  -1.27221  -1.26601  -1.22753
  Beta  occ. eigenvalues --   -1.22101  -1.21731  -1.19906  -1.15149  -1.12938
  Beta  occ. eigenvalues --   -1.10037  -1.09028  -1.05370  -1.04316  -1.03185
  Beta  occ. eigenvalues --   -1.02881  -1.02824  -1.02272  -1.02193  -1.01646
  Beta  occ. eigenvalues --   -1.01002  -1.00496  -0.97746  -0.96397  -0.95049
  Beta  occ. eigenvalues --   -0.93395  -0.89135  -0.88722  -0.86197  -0.85817
  Beta  occ. eigenvalues --   -0.85733  -0.85428  -0.83910  -0.83415  -0.82878
  Beta  occ. eigenvalues --   -0.81956  -0.81533  -0.81067  -0.80783  -0.80276
  Beta  occ. eigenvalues --   -0.80137  -0.79430  -0.78795  -0.78388  -0.78248
  Beta  occ. eigenvalues --   -0.77828  -0.77332  -0.76528  -0.75363  -0.74930
  Beta  occ. eigenvalues --   -0.74040  -0.73154  -0.73050  -0.72801  -0.72564
  Beta  occ. eigenvalues --   -0.72187  -0.72005  -0.71290  -0.71238  -0.71023
  Beta  occ. eigenvalues --   -0.70903  -0.70777  -0.70672  -0.70457  -0.70398
  Beta  occ. eigenvalues --   -0.70217  -0.69976  -0.69026  -0.68906  -0.68556
  Beta  occ. eigenvalues --   -0.68127  -0.67999  -0.67368  -0.65822  -0.65333
  Beta  occ. eigenvalues --   -0.62933  -0.62163  -0.62050  -0.61501  -0.57259
  Beta  occ. eigenvalues --   -0.55543  -0.54503
  Beta virt. eigenvalues --   -0.45030  -0.31278  -0.29465  -0.27902  -0.26943
  Beta virt. eigenvalues --   -0.24351  -0.22951  -0.21477  -0.20851  -0.20731
  Beta virt. eigenvalues --   -0.20339  -0.19301  -0.18757  -0.18566  -0.17261

 Mulliken charges and spin densities:
               1          2
     1  C   -0.088511   0.049214
     2  C   -0.287417   0.024011
     3  S    0.303026   0.352978
     4  C    0.082700   0.089460
     5  C   -0.108779   0.029089
     6  C   -0.155060   0.068474
     7  C    0.079238  -0.044134
     8  C   -0.115178  -0.041468
     9  H    0.195903  -0.004593
    10  C   -0.038106   0.001384
    11  C   -0.019857  -0.034600
    12  C   -0.060727   0.096842
    13  C    0.124663   0.003514
    14  H    0.206764   0.000518
    15  H    0.168148   0.000841
    16  H    0.188832  -0.003311
    17  C   -0.052580   0.166941
    18  H    0.219418  -0.000572
    19  H    0.135223  -0.001984
    20  H    0.163678   0.001505
    21  H    0.189421  -0.006997
    22  S    0.168237   0.178661
    23  C   -0.527846  -0.000647
    24  C    0.096877  -0.001788
    25  C    0.082175  -0.002840
    26  N    0.043570   0.022490
    27  N    0.040303   0.024532
    28  C   -0.260636  -0.000604
    29  H    0.199388   0.001475
    30  H    0.137203  -0.000119
    31  H    0.193340   0.001105
    32  C   -0.262652  -0.000843
    33  H    0.190836   0.001022
    34  H    0.202597   0.001451
    35  H    0.154658   0.000126
    36  C   -0.266771  -0.000909
    37  H    0.196829   0.001547
    38  H    0.144082  -0.000085
    39  H    0.197023   0.001497
    40  C   -0.267233  -0.000821
    41  H    0.190253   0.001067
    42  H    0.205425   0.001562
    43  H    0.155268   0.000104
    44  C   -0.483393   0.006512
    45  C    0.094759  -0.004508
    46  C    0.085995  -0.004854
    47  N    0.038617   0.010679
    48  N    0.035837   0.012794
    49  C   -0.262197   0.000062
    50  H    0.197433   0.000810
    51  H    0.140713  -0.000093
    52  H    0.193007   0.000318
    53  C   -0.265522  -0.000448
    54  H    0.189538   0.000434
    55  H    0.201609   0.000820
    56  H    0.153595   0.000102
    57  C   -0.262802  -0.000467
    58  H    0.193342   0.000742
    59  H    0.132599  -0.000006
    60  H    0.194043   0.000941
    61  C   -0.267434  -0.000435
    62  H    0.187065   0.000571
    63  H    0.202508   0.000880
    64  H    0.156959   0.000054
 Sum of Mulliken charges =   3.00000   1.00000

 Dipole moment (field-independent basis, Debye):
    X=             -0.5813    Y=              2.0778    Z=             -0.3625  Tot=              2.1878
 Quadrupole moment (field-independent basis, Debye-Ang):
   XX=            375.5088   YY=           -121.0580   ZZ=           -173.2809
   XY=             -6.4693   XZ=              3.9485   YZ=             -1.1193

 Normal termination of Gaussian 16 at Wed Jan 27 05:21:58 2021.
