 Gaussian 16, Revision A.03,
 Gaussian 16:  EM64L-G16RevA.03 25-Dec-2016

 ----------------------------------------------------------------------
 #P LC-wHPBE/TZVP iop(3/107=0190200000, 3/108=0190200000) scf=(conver=6
 ,fermi,ndamp=35,noincfock,novaracc,vshift=500,xqc)
 ----------------------------------------------------------------------

 -------------
 H32 C26 S2 N4
 -------------
 Symbolic Z-matrix:
 Charge =  2 Multiplicity = 1

                         Standard orientation:
 ---------------------------------------------------------------------
 Center     Atomic      Atomic             Coordinates (Angstroms)
 Number     Number       Type             X           Y           Z
 ---------------------------------------------------------------------
      1          6           0        2.928949   -0.209586    0.466429
      2          6           0        1.563914   -0.061175    0.303790
      3         16           0        0.549634   -0.929940    1.465043
      4          6           0        1.080492    0.744795   -0.706590
      5          6           0       -1.720975   -1.178026   -0.124019
      6          6           0       -1.104728   -0.556786    0.961278
      7          6           0        3.804439    0.453059   -0.373760
      8          6           0        1.957571    1.398720   -1.546095
      9          1           0        0.017059    0.867388   -0.843825
     10          6           0       -3.055310   -0.905897   -0.375396
     11          6           0       -1.834379    0.303673    1.763498
     12          6           0       -3.157322    0.570140    1.506853
     13          6           0       -3.772824   -0.043708    0.429435
     14          1           0       -3.535939   -1.385849   -1.215765
     15          1           0       -1.346414    0.763075    2.610001
     16          1           0       -3.711030    1.227115    2.160412
     17          6           0        3.316329    1.262630   -1.386512
     18          1           0        3.309964   -0.825983    1.268943
     19          1           0        0.121390   -2.546838   -0.437504
     20          1           0        1.570409    2.020933   -2.339064
     21          1           0        3.993957    1.766527   -2.059405
     22         16           0       -0.923466   -2.279512   -1.229412
     23          6           0       -5.179371    0.186625    0.159910
     24          6           0       -6.258258    1.013194    0.194238
     25          6           0       -6.373984   -0.291545   -0.281001
     26          7           0       -6.778879    2.172200    0.466391
     27          7           0       -7.085837   -1.264246   -0.765069
     28          6           0       -5.943792    3.274283    0.907684
     29          1           0       -6.187951    3.545500    1.931936
     30          1           0       -4.898805    2.994168    0.846509
     31          1           0       -6.108951    4.134804    0.264794
     32          6           0       -8.194976    2.451187    0.318309
     33          1           0       -8.537142    3.011091    1.183702
     34          1           0       -8.380874    3.039067   -0.577705
     35          1           0       -8.758216    1.527533    0.273817
     36          6           0       -6.515968   -2.589608   -0.931428
     37          1           0       -6.460524   -2.846499   -1.986434
     38          1           0       -5.524243   -2.624805   -0.496396
     39          1           0       -7.140387   -3.318442   -0.421721
     40          6           0       -8.484929   -1.112006   -1.118438
     41          1           0       -8.667734   -1.621246   -2.059984
     42          1           0       -9.125917   -1.545202   -0.353886
     43          1           0       -8.728287   -0.065327   -1.252120
     44          6           0        5.234909    0.301436   -0.192555
     45          6           0        6.482207    0.837696   -0.274291
     46          6           0        6.296202   -0.469144    0.166373
     47          7           0        7.258316    1.842942   -0.551570
     48          7           0        6.771609   -1.601745    0.593499
     49          6           0        6.699705    3.135271   -0.904858
     50          1           0        6.943427    3.382636   -1.935256
     51          1           0        5.623434    3.119821   -0.780416
     52          1           0        7.111169    3.899344   -0.250646
     53          6           0        8.704916    1.757804   -0.486526
     54          1           0        9.127537    2.257490   -1.353238
     55          1           0        9.080352    2.238157    0.414316
     56          1           0        9.022841    0.722915   -0.509579
     57          6           0        5.902929   -2.750782    0.768792
     58          1           0        5.850729   -3.027562    1.819029
     59          1           0        4.908582   -2.521281    0.404440
     60          1           0        6.292204   -3.591280    0.200176
     61          6           0        8.181475   -1.806186    0.866823
     62          1           0        8.283723   -2.375263    1.786100
     63          1           0        8.657299   -2.356258    0.057912
     64          1           0        8.679880   -0.854950    1.006340
 ---------------------------------------------------------------------

 SCF Done:  E(RLC-wHPBE) =  -2023.76740759     A.U. after   16 cycles

 The electronic state is 1-A.
 Alpha  occ. eigenvalues --  -88.37574 -88.36217 -14.34600 -14.34543 -14.34160
 Alpha  occ. eigenvalues --  -14.34104 -10.27098 -10.27044 -10.26619 -10.26567
 Alpha  occ. eigenvalues --  -10.23254 -10.22812 -10.21665 -10.20910 -10.20652
 Alpha  occ. eigenvalues --  -10.20639 -10.20604 -10.20582 -10.20581 -10.20393
 Alpha  occ. eigenvalues --  -10.20322 -10.20272 -10.20251 -10.20074 -10.19843
 Alpha  occ. eigenvalues --  -10.18366 -10.17854 -10.17852 -10.17799 -10.17067
 Alpha  occ. eigenvalues --  -10.16902 -10.16702  -7.96778  -7.95577  -5.99010
 Alpha  occ. eigenvalues --   -5.98490  -5.97764  -5.97752  -5.97278  -5.96575
 Alpha  occ. eigenvalues --   -1.23060  -1.22630  -1.20274  -1.19858  -1.15139
 Alpha  occ. eigenvalues --   -1.14714  -1.10551  -1.08951  -1.03615  -1.01290
 Alpha  occ. eigenvalues --   -0.99266  -0.98324  -0.96822  -0.96497  -0.96445
 Alpha  occ. eigenvalues --   -0.96151  -0.95370  -0.94989  -0.94471  -0.93932
 Alpha  occ. eigenvalues --   -0.93686  -0.92538  -0.87124  -0.85763  -0.83956
 Alpha  occ. eigenvalues --   -0.82614  -0.79462  -0.79348  -0.79079  -0.78809
 Alpha  occ. eigenvalues --   -0.78246  -0.77755  -0.74788  -0.74500  -0.74330
 Alpha  occ. eigenvalues --   -0.74086  -0.73688  -0.73177  -0.72166  -0.72069
 Alpha  occ. eigenvalues --   -0.71783  -0.71678  -0.70646  -0.69592  -0.67339
 Alpha  occ. eigenvalues --   -0.67099  -0.66667  -0.66562  -0.66420  -0.66171
 Alpha  occ. eigenvalues --   -0.65921  -0.65805  -0.65694  -0.65092  -0.64675
 Alpha  occ. eigenvalues --   -0.64466  -0.64366  -0.64155  -0.63856  -0.63720
 Alpha  occ. eigenvalues --   -0.63608  -0.63299  -0.62497  -0.62314  -0.62034
 Alpha  occ. eigenvalues --   -0.61940  -0.61343  -0.60409  -0.60319  -0.58424
 Alpha  occ. eigenvalues --   -0.57918  -0.56848  -0.56309  -0.54877  -0.54653
 Alpha  occ. eigenvalues --   -0.54463  -0.53849  -0.51724  -0.51400  -0.47224
 Alpha  occ. eigenvalues --   -0.46754  -0.45325  -0.44917
 Alpha virt. eigenvalues --   -0.18691  -0.17438  -0.14542  -0.13558  -0.10870
 Alpha virt. eigenvalues --   -0.10618  -0.10275  -0.09896  -0.09227  -0.08933
 Alpha virt. eigenvalues --   -0.08650  -0.07130  -0.06305  -0.05939  -0.05018

 Mulliken charges:
               1
     1  C   -0.123275
     2  C   -0.245530
     3  S    0.089408
     4  C    0.056354
     5  C   -0.075657
     6  C   -0.155009
     7  C    0.100287
     8  C   -0.130063
     9  H    0.176941
    10  C   -0.078413
    11  C   -0.048788
    12  C   -0.094128
    13  C    0.132666
    14  H    0.178295
    15  H    0.142646
    16  H    0.157549
    17  C   -0.108178
    18  H    0.187355
    19  H    0.127899
    20  H    0.131263
    21  H    0.155977
    22  S    0.011284
    23  C   -0.509192
    24  C    0.086950
    25  C    0.071596
    26  N    0.024091
    27  N    0.021081
    28  C   -0.257160
    29  H    0.180038
    30  H    0.151534
    31  H    0.173353
    32  C   -0.255758
    33  H    0.174367
    34  H    0.184762
    35  H    0.146316
    36  C   -0.261759
    37  H    0.179789
    38  H    0.158481
    39  H    0.175663
    40  C   -0.260494
    41  H    0.174802
    42  H    0.186701
    43  H    0.146656
    44  C   -0.469626
    45  C    0.086186
    46  C    0.078430
    47  N    0.020902
    48  N    0.019650
    49  C   -0.258267
    50  H    0.178571
    51  H    0.154933
    52  H    0.173013
    53  C   -0.258433
    54  H    0.173744
    55  H    0.184300
    56  H    0.146210
    57  C   -0.258621
    58  H    0.177553
    59  H    0.151971
    60  H    0.173605
    61  C   -0.260481
    62  H    0.172908
    63  H    0.184879
    64  H    0.147875
 Sum of Mulliken charges =   2.00000

 Dipole moment (field-independent basis, Debye):
    X=             -0.3796    Y=              3.2485    Z=             -0.5859  Tot=              3.3227
 Quadrupole moment (field-independent basis, Debye-Ang):
   XX=            270.0900   YY=           -143.0503   ZZ=           -187.0900
   XY=             -8.5163   XZ=              5.3438   YZ=             -1.2522

 Normal termination of Gaussian 16 at Wed Jan 27 14:56:27 2021.
