 Gaussian 16, Revision A.03,
 Gaussian 16:  EM64L-G16RevA.03 25-Dec-2016

 ----------------------------------------------------------------------
 #P LC-wHPBE/TZVP iop(3/107=0221900000, 3/108=0221900000) scf=(conver=6
 ,fermi,ndamp=35,noincfock,novaracc,vshift=500,xqc)
 ----------------------------------------------------------------------

 -------------
 H32 C26 S2 N4
 -------------
 Symbolic Z-matrix:
 Charge =  3 Multiplicity = 2

                         Standard orientation:
 ---------------------------------------------------------------------
 Center     Atomic      Atomic             Coordinates (Angstroms)
 Number     Number       Type             X           Y           Z
 ---------------------------------------------------------------------
      1          6           0        2.928949   -0.209586    0.466429
      2          6           0        1.563914   -0.061175    0.303790
      3         16           0        0.549634   -0.929940    1.465043
      4          6           0        1.080492    0.744795   -0.706590
      5          6           0       -1.720975   -1.178026   -0.124019
      6          6           0       -1.104728   -0.556786    0.961278
      7          6           0        3.804439    0.453059   -0.373760
      8          6           0        1.957571    1.398720   -1.546095
      9          1           0        0.017059    0.867388   -0.843825
     10          6           0       -3.055310   -0.905897   -0.375396
     11          6           0       -1.834379    0.303673    1.763498
     12          6           0       -3.157322    0.570140    1.506853
     13          6           0       -3.772824   -0.043708    0.429435
     14          1           0       -3.535939   -1.385849   -1.215765
     15          1           0       -1.346414    0.763075    2.610001
     16          1           0       -3.711030    1.227115    2.160412
     17          6           0        3.316329    1.262630   -1.386512
     18          1           0        3.309964   -0.825983    1.268943
     19          1           0        0.121390   -2.546838   -0.437504
     20          1           0        1.570409    2.020933   -2.339064
     21          1           0        3.993957    1.766527   -2.059405
     22         16           0       -0.923466   -2.279512   -1.229412
     23          6           0       -5.179371    0.186625    0.159910
     24          6           0       -6.258258    1.013194    0.194238
     25          6           0       -6.373984   -0.291545   -0.281001
     26          7           0       -6.778879    2.172200    0.466391
     27          7           0       -7.085837   -1.264246   -0.765069
     28          6           0       -5.943792    3.274283    0.907684
     29          1           0       -6.187951    3.545500    1.931936
     30          1           0       -4.898805    2.994168    0.846509
     31          1           0       -6.108951    4.134804    0.264794
     32          6           0       -8.194976    2.451187    0.318309
     33          1           0       -8.537142    3.011091    1.183702
     34          1           0       -8.380874    3.039067   -0.577705
     35          1           0       -8.758216    1.527533    0.273817
     36          6           0       -6.515968   -2.589608   -0.931428
     37          1           0       -6.460524   -2.846499   -1.986434
     38          1           0       -5.524243   -2.624805   -0.496396
     39          1           0       -7.140387   -3.318442   -0.421721
     40          6           0       -8.484929   -1.112006   -1.118438
     41          1           0       -8.667734   -1.621246   -2.059984
     42          1           0       -9.125917   -1.545202   -0.353886
     43          1           0       -8.728287   -0.065327   -1.252120
     44          6           0        5.234909    0.301436   -0.192555
     45          6           0        6.482207    0.837696   -0.274291
     46          6           0        6.296202   -0.469144    0.166373
     47          7           0        7.258316    1.842942   -0.551570
     48          7           0        6.771609   -1.601745    0.593499
     49          6           0        6.699705    3.135271   -0.904858
     50          1           0        6.943427    3.382636   -1.935256
     51          1           0        5.623434    3.119821   -0.780416
     52          1           0        7.111169    3.899344   -0.250646
     53          6           0        8.704916    1.757804   -0.486526
     54          1           0        9.127537    2.257490   -1.353238
     55          1           0        9.080352    2.238157    0.414316
     56          1           0        9.022841    0.722915   -0.509579
     57          6           0        5.902929   -2.750782    0.768792
     58          1           0        5.850729   -3.027562    1.819029
     59          1           0        4.908582   -2.521281    0.404440
     60          1           0        6.292204   -3.591280    0.200176
     61          6           0        8.181475   -1.806186    0.866823
     62          1           0        8.283723   -2.375263    1.786100
     63          1           0        8.657299   -2.356258    0.057912
     64          1           0        8.679880   -0.854950    1.006340
 ---------------------------------------------------------------------

 SCF Done:  E(ULC-wHPBE) =  -2023.37870479     A.U. after   33 cycles
 SCF Done:  E(ULC-wHPBE) =  -2023.37875149     a.u. after    3 cycles

 The electronic state is 2-A.
 Alpha  occ. eigenvalues --  -88.59748 -88.52286 -14.45263 -14.45052 -14.45036
 Alpha  occ. eigenvalues --  -14.45017 -10.38266 -10.38175 -10.38043 -10.37989
 Alpha  occ. eigenvalues --  -10.37983 -10.37227 -10.37068 -10.34955 -10.34667
 Alpha  occ. eigenvalues --  -10.34484 -10.34170 -10.34082 -10.33559 -10.33491
 Alpha  occ. eigenvalues --  -10.32733 -10.32298 -10.32105 -10.32029 -10.30895
 Alpha  occ. eigenvalues --  -10.30328 -10.30280 -10.30226 -10.29921 -10.29697
 Alpha  occ. eigenvalues --  -10.29666 -10.29641  -8.18624  -8.11569  -6.20578
 Alpha  occ. eigenvalues --   -6.20292  -6.20021  -6.13695  -6.13208  -6.12607
 Alpha  occ. eigenvalues --   -1.33886  -1.33686  -1.30697  -1.30538  -1.27102
 Alpha  occ. eigenvalues --   -1.26177  -1.25732  -1.24590  -1.20204  -1.16701
 Alpha  occ. eigenvalues --   -1.14465  -1.13876  -1.10020  -1.08034  -1.06843
 Alpha  occ. eigenvalues --   -1.06475  -1.06172  -1.06004  -1.05509  -1.05295
 Alpha  occ. eigenvalues --   -1.04348  -1.04090  -1.02108  -1.00370  -0.98635
 Alpha  occ. eigenvalues --   -0.97743  -0.93039  -0.91982  -0.89358  -0.89015
 Alpha  occ. eigenvalues --   -0.89001  -0.88583  -0.87427  -0.86952  -0.86685
 Alpha  occ. eigenvalues --   -0.85519  -0.84566  -0.84428  -0.84090  -0.83553
 Alpha  occ. eigenvalues --   -0.82817  -0.82780  -0.81786  -0.81650  -0.81479
 Alpha  occ. eigenvalues --   -0.80977  -0.80431  -0.80097  -0.79749  -0.78125
 Alpha  occ. eigenvalues --   -0.76924  -0.76382  -0.76153  -0.75751  -0.75369
 Alpha  occ. eigenvalues --   -0.75049  -0.74929  -0.74740  -0.74388  -0.73885
 Alpha  occ. eigenvalues --   -0.73581  -0.73525  -0.73316  -0.73314  -0.73144
 Alpha  occ. eigenvalues --   -0.73016  -0.72772  -0.72388  -0.71332  -0.71154
 Alpha  occ. eigenvalues --   -0.70848  -0.70819  -0.70532  -0.70165  -0.68399
 Alpha  occ. eigenvalues --   -0.65649  -0.65318  -0.64356  -0.64218  -0.63464
 Alpha  occ. eigenvalues --   -0.59821  -0.57344  -0.57116
 Alpha virt. eigenvalues --   -0.30111  -0.29303  -0.27372  -0.26066  -0.23147
 Alpha virt. eigenvalues --   -0.21365  -0.19784  -0.19446  -0.18765  -0.18482
 Alpha virt. eigenvalues --   -0.17681  -0.17342  -0.16877  -0.15742  -0.14630

  Beta  occ. eigenvalues --  -88.59506 -88.52236 -14.45258 -14.45050 -14.45014
  Beta  occ. eigenvalues --  -14.44992 -10.38273 -10.38180 -10.38043 -10.37990
  Beta  occ. eigenvalues --  -10.37937 -10.37162 -10.37020 -10.35023 -10.34642
  Beta  occ. eigenvalues --  -10.34471 -10.34174 -10.33957 -10.33411 -10.33237
  Beta  occ. eigenvalues --  -10.32738 -10.32307 -10.32175 -10.31966 -10.30894
  Beta  occ. eigenvalues --  -10.30329 -10.30280 -10.30226 -10.29921 -10.29697
  Beta  occ. eigenvalues --  -10.29666 -10.29641  -8.18377  -8.11518  -6.20419
  Beta  occ. eigenvalues --   -6.19893  -6.19600  -6.13658  -6.13168  -6.12484
  Beta  occ. eigenvalues --   -1.33886  -1.33662  -1.30692  -1.30506  -1.26773
  Beta  occ. eigenvalues --   -1.26126  -1.25634  -1.24411  -1.19665  -1.16501
  Beta  occ. eigenvalues --   -1.14250  -1.13730  -1.09403  -1.07745  -1.06834
  Beta  occ. eigenvalues --   -1.06444  -1.06166  -1.05996  -1.05509  -1.05290
  Beta  occ. eigenvalues --   -1.04320  -1.04066  -1.01907  -1.00232  -0.98450
  Beta  occ. eigenvalues --   -0.97498  -0.92843  -0.91910  -0.89321  -0.88982
  Beta  occ. eigenvalues --   -0.88969  -0.88544  -0.87307  -0.86710  -0.86532
  Beta  occ. eigenvalues --   -0.85416  -0.84549  -0.84383  -0.84032  -0.83485
  Beta  occ. eigenvalues --   -0.82777  -0.82746  -0.81696  -0.81555  -0.81403
  Beta  occ. eigenvalues --   -0.80885  -0.80261  -0.79840  -0.79131  -0.77872
  Beta  occ. eigenvalues --   -0.76668  -0.76349  -0.75982  -0.75634  -0.75324
  Beta  occ. eigenvalues --   -0.75027  -0.74808  -0.74507  -0.74231  -0.73840
  Beta  occ. eigenvalues --   -0.73490  -0.73474  -0.73302  -0.73278  -0.73068
  Beta  occ. eigenvalues --   -0.72991  -0.72767  -0.72167  -0.71215  -0.71123
  Beta  occ. eigenvalues --   -0.70769  -0.70544  -0.70170  -0.68428  -0.67608
  Beta  occ. eigenvalues --   -0.65216  -0.65027  -0.64332  -0.64122  -0.58811
  Beta  occ. eigenvalues --   -0.57183  -0.56703
  Beta virt. eigenvalues --   -0.44673  -0.29783  -0.28509  -0.26346  -0.25574
  Beta virt. eigenvalues --   -0.22758  -0.21001  -0.19594  -0.19189  -0.18764
  Beta virt. eigenvalues --   -0.18411  -0.17509  -0.17237  -0.16745  -0.15388

 Mulliken charges and spin densities:
               1          2
     1  C   -0.084831   0.097258
     2  C   -0.294248   0.017656
     3  S    0.371052   0.476314
     4  C    0.085986   0.116534
     5  C   -0.106855   0.027502
     6  C   -0.182558   0.039997
     7  C    0.072576  -0.077537
     8  C   -0.115333  -0.069979
     9  H    0.209384  -0.006272
    10  C   -0.044244  -0.005776
    11  C   -0.021982  -0.017110
    12  C   -0.076514   0.048520
    13  C    0.121302   0.013901
    14  H    0.213724   0.000790
    15  H    0.171309  -0.000087
    16  H    0.193740  -0.001221
    17  C   -0.043818   0.216946
    18  H    0.231347  -0.002539
    19  H    0.122880  -0.001530
    20  H    0.173923   0.002456
    21  H    0.200819  -0.008752
    22  S    0.144152   0.110082
    23  C   -0.525298  -0.007121
    24  C    0.095439   0.000732
    25  C    0.080286   0.000009
    26  N    0.035699   0.011316
    27  N    0.032390   0.012216
    28  C   -0.252437  -0.000449
    29  H    0.195696   0.000694
    30  H    0.132571  -0.000084
    31  H    0.189211   0.000543
    32  C   -0.254576  -0.000507
    33  H    0.186904   0.000490
    34  H    0.199058   0.000634
    35  H    0.150666   0.000057
    36  C   -0.258398  -0.000637
    37  H    0.193405   0.000722
    38  H    0.139743  -0.000024
    39  H    0.192902   0.000719
    40  C   -0.259300  -0.000505
    41  H    0.186431   0.000503
    42  H    0.201926   0.000670
    43  H    0.151085   0.000048
    44  C   -0.483757   0.007627
    45  C    0.092924  -0.004880
    46  C    0.084273  -0.005314
    47  N    0.033632   0.001532
    48  N    0.030478   0.002914
    49  C   -0.253615   0.000420
    50  H    0.196595   0.000184
    51  H    0.134254  -0.000179
    52  H    0.191648  -0.000111
    53  C   -0.257621  -0.000126
    54  H    0.187679   0.000050
    55  H    0.200318   0.000177
    56  H    0.150334   0.000046
    57  C   -0.254104  -0.000059
    58  H    0.192155   0.000137
    59  H    0.126203  -0.000129
    60  H    0.192890   0.000319
    61  C   -0.259559  -0.000133
    62  H    0.185060   0.000144
    63  H    0.201377   0.000196
    64  H    0.153620   0.000007
 Sum of Mulliken charges =   3.00000   1.00000

 Dipole moment (field-independent basis, Debye):
    X=              1.3055    Y=              2.3770    Z=             -0.0452  Tot=              2.7122
 Quadrupole moment (field-independent basis, Debye-Ang):
   XX=            367.5348   YY=           -122.6691   ZZ=           -172.6937
   XY=             -6.0352   XZ=              3.6443   YZ=             -2.5802

 Normal termination of Gaussian 16 at Wed Jan 27 01:55:51 2021.
