 Gaussian 16, Revision A.03,
 Gaussian 16:  EM64L-G16RevA.03 25-Dec-2016

 ----------------------------------------------------------------------
 #P LC-wHPBE/TZVP iop(3/107=0189700000, 3/108=0189700000) scf=(conver=6
 ,fermi,ndamp=35,noincfock,novaracc,vshift=500,xqc)
 ----------------------------------------------------------------------

 -------------
 H32 C26 S2 N4
 -------------
 Symbolic Z-matrix:
 Charge =  2 Multiplicity = 1

                         Standard orientation:
 ---------------------------------------------------------------------
 Center     Atomic      Atomic             Coordinates (Angstroms)
 Number     Number       Type             X           Y           Z
 ---------------------------------------------------------------------
      1          6           0        2.928949   -0.209586    0.466429
      2          6           0        1.563914   -0.061175    0.303790
      3         16           0        0.549634   -0.929940    1.465043
      4          6           0        1.080492    0.744795   -0.706590
      5          6           0       -1.720975   -1.178026   -0.124019
      6          6           0       -1.104728   -0.556786    0.961278
      7          6           0        3.804439    0.453059   -0.373760
      8          6           0        1.957571    1.398720   -1.546095
      9          1           0        0.017059    0.867388   -0.843825
     10          6           0       -3.055310   -0.905897   -0.375396
     11          6           0       -1.834379    0.303673    1.763498
     12          6           0       -3.157322    0.570140    1.506853
     13          6           0       -3.772824   -0.043708    0.429435
     14          1           0       -3.535939   -1.385849   -1.215765
     15          1           0       -1.346414    0.763075    2.610001
     16          1           0       -3.711030    1.227115    2.160412
     17          6           0        3.316329    1.262630   -1.386512
     18          1           0        3.309964   -0.825983    1.268943
     19          1           0        0.121390   -2.546838   -0.437504
     20          1           0        1.570409    2.020933   -2.339064
     21          1           0        3.993957    1.766527   -2.059405
     22         16           0       -0.923466   -2.279512   -1.229412
     23          6           0       -5.179371    0.186625    0.159910
     24          6           0       -6.258258    1.013194    0.194238
     25          6           0       -6.373984   -0.291545   -0.281001
     26          7           0       -6.778879    2.172200    0.466391
     27          7           0       -7.085837   -1.264246   -0.765069
     28          6           0       -5.943792    3.274283    0.907684
     29          1           0       -6.187951    3.545500    1.931936
     30          1           0       -4.898805    2.994168    0.846509
     31          1           0       -6.108951    4.134804    0.264794
     32          6           0       -8.194976    2.451187    0.318309
     33          1           0       -8.537142    3.011091    1.183702
     34          1           0       -8.380874    3.039067   -0.577705
     35          1           0       -8.758216    1.527533    0.273817
     36          6           0       -6.515968   -2.589608   -0.931428
     37          1           0       -6.460524   -2.846499   -1.986434
     38          1           0       -5.524243   -2.624805   -0.496396
     39          1           0       -7.140387   -3.318442   -0.421721
     40          6           0       -8.484929   -1.112006   -1.118438
     41          1           0       -8.667734   -1.621246   -2.059984
     42          1           0       -9.125917   -1.545202   -0.353886
     43          1           0       -8.728287   -0.065327   -1.252120
     44          6           0        5.234909    0.301436   -0.192555
     45          6           0        6.482207    0.837696   -0.274291
     46          6           0        6.296202   -0.469144    0.166373
     47          7           0        7.258316    1.842942   -0.551570
     48          7           0        6.771609   -1.601745    0.593499
     49          6           0        6.699705    3.135271   -0.904858
     50          1           0        6.943427    3.382636   -1.935256
     51          1           0        5.623434    3.119821   -0.780416
     52          1           0        7.111169    3.899344   -0.250646
     53          6           0        8.704916    1.757804   -0.486526
     54          1           0        9.127537    2.257490   -1.353238
     55          1           0        9.080352    2.238157    0.414316
     56          1           0        9.022841    0.722915   -0.509579
     57          6           0        5.902929   -2.750782    0.768792
     58          1           0        5.850729   -3.027562    1.819029
     59          1           0        4.908582   -2.521281    0.404440
     60          1           0        6.292204   -3.591280    0.200176
     61          6           0        8.181475   -1.806186    0.866823
     62          1           0        8.283723   -2.375263    1.786100
     63          1           0        8.657299   -2.356258    0.057912
     64          1           0        8.679880   -0.854950    1.006340
 ---------------------------------------------------------------------

 SCF Done:  E(RLC-wHPBE) =  -2023.76638234     A.U. after   16 cycles

 The electronic state is 1-A.
 Alpha  occ. eigenvalues --  -88.37547 -88.36191 -14.34573 -14.34516 -14.34132
 Alpha  occ. eigenvalues --  -14.34077 -10.27067 -10.27013 -10.26588 -10.26536
 Alpha  occ. eigenvalues --  -10.23224 -10.22782 -10.21636 -10.20882 -10.20623
 Alpha  occ. eigenvalues --  -10.20611 -10.20575 -10.20554 -10.20553 -10.20365
 Alpha  occ. eigenvalues --  -10.20294 -10.20244 -10.20223 -10.20046 -10.19814
 Alpha  occ. eigenvalues --  -10.18338 -10.17826 -10.17823 -10.17770 -10.17039
 Alpha  occ. eigenvalues --  -10.16874 -10.16673  -7.96751  -7.95550  -5.98983
 Alpha  occ. eigenvalues --   -5.98464  -5.97738  -5.97726  -5.97252  -5.96549
 Alpha  occ. eigenvalues --   -1.23029  -1.22600  -1.20245  -1.19828  -1.15109
 Alpha  occ. eigenvalues --   -1.14685  -1.10521  -1.08921  -1.03586  -1.01261
 Alpha  occ. eigenvalues --   -0.99237  -0.98295  -0.96794  -0.96469  -0.96417
 Alpha  occ. eigenvalues --   -0.96123  -0.95342  -0.94961  -0.94443  -0.93905
 Alpha  occ. eigenvalues --   -0.93659  -0.92510  -0.87096  -0.85737  -0.83929
 Alpha  occ. eigenvalues --   -0.82588  -0.79437  -0.79324  -0.79054  -0.78784
 Alpha  occ. eigenvalues --   -0.78221  -0.77730  -0.74764  -0.74474  -0.74306
 Alpha  occ. eigenvalues --   -0.74060  -0.73664  -0.73154  -0.72142  -0.72045
 Alpha  occ. eigenvalues --   -0.71759  -0.71655  -0.70622  -0.69569  -0.67316
 Alpha  occ. eigenvalues --   -0.67076  -0.66643  -0.66539  -0.66398  -0.66149
 Alpha  occ. eigenvalues --   -0.65899  -0.65782  -0.65671  -0.65069  -0.64653
 Alpha  occ. eigenvalues --   -0.64444  -0.64344  -0.64133  -0.63834  -0.63698
 Alpha  occ. eigenvalues --   -0.63587  -0.63278  -0.62476  -0.62293  -0.62013
 Alpha  occ. eigenvalues --   -0.61919  -0.61322  -0.60389  -0.60299  -0.58404
 Alpha  occ. eigenvalues --   -0.57898  -0.56829  -0.56290  -0.54858  -0.54634
 Alpha  occ. eigenvalues --   -0.54444  -0.53830  -0.51707  -0.51383  -0.47209
 Alpha  occ. eigenvalues --   -0.46739  -0.45310  -0.44902
 Alpha virt. eigenvalues --   -0.18702  -0.17449  -0.14554  -0.13570  -0.10884
 Alpha virt. eigenvalues --   -0.10632  -0.10289  -0.09909  -0.09239  -0.08947
 Alpha virt. eigenvalues --   -0.08665  -0.07144  -0.06317  -0.05952  -0.05031

 Mulliken charges:
               1
     1  C   -0.123225
     2  C   -0.245565
     3  S    0.089327
     4  C    0.056452
     5  C   -0.075675
     6  C   -0.154811
     7  C    0.100289
     8  C   -0.130051
     9  H    0.176894
    10  C   -0.078388
    11  C   -0.048778
    12  C   -0.094081
    13  C    0.132698
    14  H    0.178229
    15  H    0.142585
    16  H    0.157493
    17  C   -0.108121
    18  H    0.187297
    19  H    0.127888
    20  H    0.131215
    21  H    0.155921
    22  S    0.011270
    23  C   -0.509253
    24  C    0.086969
    25  C    0.071610
    26  N    0.024132
    27  N    0.021122
    28  C   -0.257227
    29  H    0.180050
    30  H    0.151559
    31  H    0.173369
    32  C   -0.255825
    33  H    0.174383
    34  H    0.184773
    35  H    0.146343
    36  C   -0.261827
    37  H    0.179800
    38  H    0.158508
    39  H    0.175680
    40  C   -0.260560
    41  H    0.174817
    42  H    0.186712
    43  H    0.146683
    44  C   -0.469666
    45  C    0.086203
    46  C    0.078444
    47  N    0.020943
    48  N    0.019691
    49  C   -0.258334
    50  H    0.178582
    51  H    0.154959
    52  H    0.173029
    53  C   -0.258501
    54  H    0.173760
    55  H    0.184311
    56  H    0.146237
    57  C   -0.258690
    58  H    0.177564
    59  H    0.151998
    60  H    0.173622
    61  C   -0.260548
    62  H    0.172923
    63  H    0.184890
    64  H    0.147902
 Sum of Mulliken charges =   2.00000

 Dipole moment (field-independent basis, Debye):
    X=             -0.3798    Y=              3.2478    Z=             -0.5860  Tot=              3.3221
 Quadrupole moment (field-independent basis, Debye-Ang):
   XX=            270.0877   YY=           -143.0496   ZZ=           -187.0915
   XY=             -8.5161   XZ=              5.3451   YZ=             -1.2516

 Normal termination of Gaussian 16 at Wed Jan 27 10:18:38 2021.
