 Gaussian 16, Revision A.03,
 Gaussian 16:  EM64L-G16RevA.03 25-Dec-2016

 ----------------------------------------------------------------------
 #P LC-wHPBE/TZVP iop(3/107=0191400000, 3/108=0191400000) scf=(conver=6
 ,fermi,ndamp=35,noincfock,novaracc,vshift=500,xqc)
 ----------------------------------------------------------------------

 -------------
 H32 C26 S2 N4
 -------------
 Symbolic Z-matrix:
 Charge =  3 Multiplicity = 2

                         Standard orientation:
 ---------------------------------------------------------------------
 Center     Atomic      Atomic             Coordinates (Angstroms)
 Number     Number       Type             X           Y           Z
 ---------------------------------------------------------------------
      1          6           0        2.928949   -0.209586    0.466429
      2          6           0        1.563914   -0.061175    0.303790
      3         16           0        0.549634   -0.929940    1.465043
      4          6           0        1.080492    0.744795   -0.706590
      5          6           0       -1.720975   -1.178026   -0.124019
      6          6           0       -1.104728   -0.556786    0.961278
      7          6           0        3.804439    0.453059   -0.373760
      8          6           0        1.957571    1.398720   -1.546095
      9          1           0        0.017059    0.867388   -0.843825
     10          6           0       -3.055310   -0.905897   -0.375396
     11          6           0       -1.834379    0.303673    1.763498
     12          6           0       -3.157322    0.570140    1.506853
     13          6           0       -3.772824   -0.043708    0.429435
     14          1           0       -3.535939   -1.385849   -1.215765
     15          1           0       -1.346414    0.763075    2.610001
     16          1           0       -3.711030    1.227115    2.160412
     17          6           0        3.316329    1.262630   -1.386512
     18          1           0        3.309964   -0.825983    1.268943
     19          1           0        0.121390   -2.546838   -0.437504
     20          1           0        1.570409    2.020933   -2.339064
     21          1           0        3.993957    1.766527   -2.059405
     22         16           0       -0.923466   -2.279512   -1.229412
     23          6           0       -5.179371    0.186625    0.159910
     24          6           0       -6.258258    1.013194    0.194238
     25          6           0       -6.373984   -0.291545   -0.281001
     26          7           0       -6.778879    2.172200    0.466391
     27          7           0       -7.085837   -1.264246   -0.765069
     28          6           0       -5.943792    3.274283    0.907684
     29          1           0       -6.187951    3.545500    1.931936
     30          1           0       -4.898805    2.994168    0.846509
     31          1           0       -6.108951    4.134804    0.264794
     32          6           0       -8.194976    2.451187    0.318309
     33          1           0       -8.537142    3.011091    1.183702
     34          1           0       -8.380874    3.039067   -0.577705
     35          1           0       -8.758216    1.527533    0.273817
     36          6           0       -6.515968   -2.589608   -0.931428
     37          1           0       -6.460524   -2.846499   -1.986434
     38          1           0       -5.524243   -2.624805   -0.496396
     39          1           0       -7.140387   -3.318442   -0.421721
     40          6           0       -8.484929   -1.112006   -1.118438
     41          1           0       -8.667734   -1.621246   -2.059984
     42          1           0       -9.125917   -1.545202   -0.353886
     43          1           0       -8.728287   -0.065327   -1.252120
     44          6           0        5.234909    0.301436   -0.192555
     45          6           0        6.482207    0.837696   -0.274291
     46          6           0        6.296202   -0.469144    0.166373
     47          7           0        7.258316    1.842942   -0.551570
     48          7           0        6.771609   -1.601745    0.593499
     49          6           0        6.699705    3.135271   -0.904858
     50          1           0        6.943427    3.382636   -1.935256
     51          1           0        5.623434    3.119821   -0.780416
     52          1           0        7.111169    3.899344   -0.250646
     53          6           0        8.704916    1.757804   -0.486526
     54          1           0        9.127537    2.257490   -1.353238
     55          1           0        9.080352    2.238157    0.414316
     56          1           0        9.022841    0.722915   -0.509579
     57          6           0        5.902929   -2.750782    0.768792
     58          1           0        5.850729   -3.027562    1.819029
     59          1           0        4.908582   -2.521281    0.404440
     60          1           0        6.292204   -3.591280    0.200176
     61          6           0        8.181475   -1.806186    0.866823
     62          1           0        8.283723   -2.375263    1.786100
     63          1           0        8.657299   -2.356258    0.057912
     64          1           0        8.679880   -0.854950    1.006340
 ---------------------------------------------------------------------

 SCF Done:  E(ULC-wHPBE) =  -2023.32054838     A.U. after   33 cycles
 SCF Done:  E(ULC-wHPBE) =  -2023.32056667     a.u. after    2 cycles

 The electronic state is 2-A.
 Alpha  occ. eigenvalues --  -88.56789 -88.51593 -14.43756 -14.43754 -14.43336
 Alpha  occ. eigenvalues --  -14.43117 -10.36516 -10.36464 -10.36076 -10.35983
 Alpha  occ. eigenvalues --  -10.35876 -10.35537 -10.35404 -10.33255 -10.32759
 Alpha  occ. eigenvalues --  -10.32587 -10.32374 -10.31560 -10.31122 -10.31089
 Alpha  occ. eigenvalues --  -10.30980 -10.30923 -10.30839 -10.29792 -10.28950
 Alpha  occ. eigenvalues --  -10.28897 -10.28841 -10.28317 -10.28239 -10.28232
 Alpha  occ. eigenvalues --  -10.28017 -10.27786  -8.15692  -8.10818  -6.17722
 Alpha  occ. eigenvalues --   -6.17315  -6.17150  -6.12953  -6.12471  -6.11988
 Alpha  occ. eigenvalues --   -1.32186  -1.31739  -1.29110  -1.28653  -1.25075
 Alpha  occ. eigenvalues --   -1.24337  -1.23950  -1.22500  -1.18001  -1.15375
 Alpha  occ. eigenvalues --   -1.12485  -1.11535  -1.08030  -1.06807  -1.05068
 Alpha  occ. eigenvalues --   -1.04894  -1.04629  -1.04247  -1.03966  -1.03600
 Alpha  occ. eigenvalues --   -1.02774  -1.02442  -1.00095  -0.98637  -0.97222
 Alpha  occ. eigenvalues --   -0.95790  -0.91208  -0.90796  -0.87863  -0.87602
 Alpha  occ. eigenvalues --   -0.87416  -0.87249  -0.85870  -0.85514  -0.84903
 Alpha  occ. eigenvalues --   -0.83868  -0.83248  -0.82874  -0.82641  -0.81980
 Alpha  occ. eigenvalues --   -0.81773  -0.81170  -0.80460  -0.80272  -0.80009
 Alpha  occ. eigenvalues --   -0.79710  -0.79242  -0.78592  -0.77839  -0.76885
 Alpha  occ. eigenvalues --   -0.75738  -0.74866  -0.74776  -0.74634  -0.74027
 Alpha  occ. eigenvalues --   -0.73834  -0.73697  -0.73227  -0.73032  -0.72534
 Alpha  occ. eigenvalues --   -0.72413  -0.72331  -0.72179  -0.72080  -0.71836
 Alpha  occ. eigenvalues --   -0.71823  -0.71547  -0.70827  -0.70600  -0.69977
 Alpha  occ. eigenvalues --   -0.69691  -0.69427  -0.69147  -0.68829  -0.67827
 Alpha  occ. eigenvalues --   -0.64633  -0.64027  -0.63424  -0.62982  -0.61660
 Alpha  occ. eigenvalues --   -0.59689  -0.56647  -0.56182
 Alpha virt. eigenvalues --   -0.30909  -0.29347  -0.27620  -0.26883  -0.23836
 Alpha virt. eigenvalues --   -0.22196  -0.20708  -0.19949  -0.19614  -0.19291
 Alpha virt. eigenvalues --   -0.18434  -0.17847  -0.17772  -0.16676  -0.15265

  Beta  occ. eigenvalues --  -88.56585 -88.51517 -14.43723 -14.43722 -14.43327
  Beta  occ. eigenvalues --  -14.43111 -10.36518 -10.36467 -10.36082 -10.35988
  Beta  occ. eigenvalues --  -10.35807 -10.35457 -10.35362 -10.33237 -10.32759
  Beta  occ. eigenvalues --  -10.32638 -10.32363 -10.31463 -10.31145 -10.30981
  Beta  occ. eigenvalues --  -10.30971 -10.30736 -10.30712 -10.29841 -10.28950
  Beta  occ. eigenvalues --  -10.28898 -10.28842 -10.28316 -10.28240 -10.28233
  Beta  occ. eigenvalues --  -10.28018 -10.27786  -8.15484  -8.10741  -6.17589
  Beta  occ. eigenvalues --   -6.17069  -6.16704  -6.12898  -6.12414  -6.11793
  Beta  occ. eigenvalues --   -1.32154  -1.31734  -1.29065  -1.28642  -1.24852
  Beta  occ. eigenvalues --   -1.24246  -1.23858  -1.22306  -1.17555  -1.15108
  Beta  occ. eigenvalues --   -1.12306  -1.11419  -1.07572  -1.06398  -1.05029
  Beta  occ. eigenvalues --   -1.04885  -1.04619  -1.04243  -1.03958  -1.03599
  Beta  occ. eigenvalues --   -1.02745  -1.02424  -0.99906  -0.98493  -0.97048
  Beta  occ. eigenvalues --   -0.95562  -0.91068  -0.90697  -0.87822  -0.87577
  Beta  occ. eigenvalues --   -0.87379  -0.87231  -0.85697  -0.85363  -0.84764
  Beta  occ. eigenvalues --   -0.83793  -0.83194  -0.82845  -0.82583  -0.81923
  Beta  occ. eigenvalues --   -0.81734  -0.81137  -0.80376  -0.80137  -0.79986
  Beta  occ. eigenvalues --   -0.79537  -0.79163  -0.78401  -0.77328  -0.76628
  Beta  occ. eigenvalues --   -0.75581  -0.74824  -0.74606  -0.74477  -0.74012
  Beta  occ. eigenvalues --   -0.73800  -0.73544  -0.73080  -0.72883  -0.72482
  Beta  occ. eigenvalues --   -0.72370  -0.72314  -0.72115  -0.71981  -0.71831
  Beta  occ. eigenvalues --   -0.71793  -0.71524  -0.70623  -0.70469  -0.69938
  Beta  occ. eigenvalues --   -0.69663  -0.69374  -0.68933  -0.67307  -0.66758
  Beta  occ. eigenvalues --   -0.64259  -0.63724  -0.63302  -0.62948  -0.58223
  Beta  occ. eigenvalues --   -0.56483  -0.55731
  Beta virt. eigenvalues --   -0.44834  -0.30499  -0.28748  -0.26996  -0.26148
  Beta virt. eigenvalues --   -0.23469  -0.21929  -0.20454  -0.19763  -0.19526
  Beta virt. eigenvalues --   -0.19273  -0.18266  -0.17789  -0.17606  -0.16275

 Mulliken charges and spin densities:
               1          2
     1  C   -0.088075   0.073738
     2  C   -0.289877   0.018545
     3  S    0.333771   0.406134
     4  C    0.080502   0.093610
     5  C   -0.107831   0.029926
     6  C   -0.167018   0.061132
     7  C    0.075798  -0.058429
     8  C   -0.115421  -0.050247
     9  H    0.200825  -0.004899
    10  C   -0.039170   0.001504
    11  C   -0.021073  -0.032406
    12  C   -0.065242   0.082226
    13  C    0.121075   0.005939
    14  H    0.211041   0.000504
    15  H    0.170582   0.000646
    16  H    0.191934  -0.002622
    17  C   -0.050333   0.179431
    18  H    0.224871  -0.001584
    19  H    0.131948  -0.002233
    20  H    0.167707   0.001808
    21  H    0.194101  -0.007385
    22  S    0.167368   0.167609
    23  C   -0.528681  -0.005051
    24  C    0.096043  -0.000269
    25  C    0.081136  -0.001233
    26  N    0.040532   0.015367
    27  N    0.037149   0.016842
    28  C   -0.255521  -0.000479
    29  H    0.197402   0.000977
    30  H    0.134149  -0.000115
    31  H    0.191219   0.000722
    32  C   -0.257773  -0.000642
    33  H    0.188693   0.000681
    34  H    0.200610   0.000918
    35  H    0.152415   0.000084
    36  C   -0.261567  -0.000749
    37  H    0.194890   0.001021
    38  H    0.140862  -0.000067
    39  H    0.194901   0.001018
    40  C   -0.262430  -0.000635
    41  H    0.188117   0.000714
    42  H    0.203437   0.000984
    43  H    0.153018   0.000067
    44  C   -0.485241   0.005646
    45  C    0.093963  -0.003990
    46  C    0.084592  -0.004388
    47  N    0.036247   0.003305
    48  N    0.033158   0.004753
    49  C   -0.256968   0.000300
    50  H    0.196126   0.000298
    51  H    0.137203  -0.000130
    52  H    0.191531  -0.000017
    53  C   -0.260620  -0.000176
    54  H    0.187881   0.000120
    55  H    0.200110   0.000290
    56  H    0.151500   0.000054
    57  C   -0.257340  -0.000156
    58  H    0.191860   0.000247
    59  H    0.128597  -0.000055
    60  H    0.192624   0.000425
    61  C   -0.262555  -0.000177
    62  H    0.185283   0.000219
    63  H    0.201067   0.000317
    64  H    0.154900   0.000015
 Sum of Mulliken charges =   3.00000   1.00000

 Dipole moment (field-independent basis, Debye):
    X=             -0.1184    Y=              2.0644    Z=             -0.2314  Tot=              2.0807
 Quadrupole moment (field-independent basis, Debye-Ang):
   XX=            369.6665   YY=           -121.7183   ZZ=           -172.9483
   XY=             -6.2589   XZ=              3.8063   YZ=             -1.5038

 Normal termination of Gaussian 16 at Wed Jan 27 08:25:29 2021.
