 Gaussian 16, Revision A.03,
 Gaussian 16:  EM64L-G16RevA.03 25-Dec-2016

 ----------------------------------------------------------------------
 #P LC-wHPBE/TZVP iop(3/107=0189300000, 3/108=0189300000) scf=(conver=6
 ,fermi,ndamp=35,noincfock,novaracc,vshift=500,xqc)
 ----------------------------------------------------------------------

 -------------
 H32 C26 S2 N4
 -------------
 Symbolic Z-matrix:
 Charge =  3 Multiplicity = 2

                         Standard orientation:
 ---------------------------------------------------------------------
 Center     Atomic      Atomic             Coordinates (Angstroms)
 Number     Number       Type             X           Y           Z
 ---------------------------------------------------------------------
      1          6           0        2.928949   -0.209586    0.466429
      2          6           0        1.563914   -0.061175    0.303790
      3         16           0        0.549634   -0.929940    1.465043
      4          6           0        1.080492    0.744795   -0.706590
      5          6           0       -1.720975   -1.178026   -0.124019
      6          6           0       -1.104728   -0.556786    0.961278
      7          6           0        3.804439    0.453059   -0.373760
      8          6           0        1.957571    1.398720   -1.546095
      9          1           0        0.017059    0.867388   -0.843825
     10          6           0       -3.055310   -0.905897   -0.375396
     11          6           0       -1.834379    0.303673    1.763498
     12          6           0       -3.157322    0.570140    1.506853
     13          6           0       -3.772824   -0.043708    0.429435
     14          1           0       -3.535939   -1.385849   -1.215765
     15          1           0       -1.346414    0.763075    2.610001
     16          1           0       -3.711030    1.227115    2.160412
     17          6           0        3.316329    1.262630   -1.386512
     18          1           0        3.309964   -0.825983    1.268943
     19          1           0        0.121390   -2.546838   -0.437504
     20          1           0        1.570409    2.020933   -2.339064
     21          1           0        3.993957    1.766527   -2.059405
     22         16           0       -0.923466   -2.279512   -1.229412
     23          6           0       -5.179371    0.186625    0.159910
     24          6           0       -6.258258    1.013194    0.194238
     25          6           0       -6.373984   -0.291545   -0.281001
     26          7           0       -6.778879    2.172200    0.466391
     27          7           0       -7.085837   -1.264246   -0.765069
     28          6           0       -5.943792    3.274283    0.907684
     29          1           0       -6.187951    3.545500    1.931936
     30          1           0       -4.898805    2.994168    0.846509
     31          1           0       -6.108951    4.134804    0.264794
     32          6           0       -8.194976    2.451187    0.318309
     33          1           0       -8.537142    3.011091    1.183702
     34          1           0       -8.380874    3.039067   -0.577705
     35          1           0       -8.758216    1.527533    0.273817
     36          6           0       -6.515968   -2.589608   -0.931428
     37          1           0       -6.460524   -2.846499   -1.986434
     38          1           0       -5.524243   -2.624805   -0.496396
     39          1           0       -7.140387   -3.318442   -0.421721
     40          6           0       -8.484929   -1.112006   -1.118438
     41          1           0       -8.667734   -1.621246   -2.059984
     42          1           0       -9.125917   -1.545202   -0.353886
     43          1           0       -8.728287   -0.065327   -1.252120
     44          6           0        5.234909    0.301436   -0.192555
     45          6           0        6.482207    0.837696   -0.274291
     46          6           0        6.296202   -0.469144    0.166373
     47          7           0        7.258316    1.842942   -0.551570
     48          7           0        6.771609   -1.601745    0.593499
     49          6           0        6.699705    3.135271   -0.904858
     50          1           0        6.943427    3.382636   -1.935256
     51          1           0        5.623434    3.119821   -0.780416
     52          1           0        7.111169    3.899344   -0.250646
     53          6           0        8.704916    1.757804   -0.486526
     54          1           0        9.127537    2.257490   -1.353238
     55          1           0        9.080352    2.238157    0.414316
     56          1           0        9.022841    0.722915   -0.509579
     57          6           0        5.902929   -2.750782    0.768792
     58          1           0        5.850729   -3.027562    1.819029
     59          1           0        4.908582   -2.521281    0.404440
     60          1           0        6.292204   -3.591280    0.200176
     61          6           0        8.181475   -1.806186    0.866823
     62          1           0        8.283723   -2.375263    1.786100
     63          1           0        8.657299   -2.356258    0.057912
     64          1           0        8.679880   -0.854950    1.006340
 ---------------------------------------------------------------------

 SCF Done:  E(ULC-wHPBE) =  -2023.31650116     A.U. after   33 cycles
 SCF Done:  E(ULC-wHPBE) =  -2023.31651988     a.u. after    2 cycles

 The electronic state is 2-A.
 Alpha  occ. eigenvalues --  -88.56606 -88.51505 -14.43660 -14.43657 -14.43216
 Alpha  occ. eigenvalues --  -14.42997 -10.36403 -10.36350 -10.35939 -10.35846
 Alpha  occ. eigenvalues --  -10.35761 -10.35416 -10.35247 -10.33142 -10.32653
 Alpha  occ. eigenvalues --  -10.32442 -10.32242 -10.31404 -10.31002 -10.30939
 Alpha  occ. eigenvalues --  -10.30871 -10.30771 -10.30736 -10.29648 -10.28825
 Alpha  occ. eigenvalues --  -10.28792 -10.28738 -10.28192 -10.28136 -10.28129
 Alpha  occ. eigenvalues --  -10.27896 -10.27664  -8.15510  -8.10727  -6.17544
 Alpha  occ. eigenvalues --   -6.17132  -6.16971  -6.12863  -6.12381  -6.11903
 Alpha  occ. eigenvalues --   -1.32075  -1.31604  -1.29004  -1.28524  -1.24944
 Alpha  occ. eigenvalues --   -1.24213  -1.23824  -1.22356  -1.17855  -1.15261
 Alpha  occ. eigenvalues --   -1.12351  -1.11387  -1.07897  -1.06696  -1.04962
 Alpha  occ. eigenvalues --   -1.04769  -1.04525  -1.04124  -1.03865  -1.03478
 Alpha  occ. eigenvalues --   -1.02675  -1.02321  -0.99965  -0.98515  -0.97114
 Alpha  occ. eigenvalues --   -0.95658  -0.91093  -0.90690  -0.87772  -0.87491
 Alpha  occ. eigenvalues --   -0.87326  -0.87137  -0.85773  -0.85397  -0.84790
 Alpha  occ. eigenvalues --   -0.83757  -0.83156  -0.82769  -0.82534  -0.81876
 Alpha  occ. eigenvalues --   -0.81690  -0.81065  -0.80369  -0.80177  -0.79903
 Alpha  occ. eigenvalues --   -0.79620  -0.79145  -0.78481  -0.77714  -0.76790
 Alpha  occ. eigenvalues --   -0.75652  -0.74766  -0.74689  -0.74537  -0.73947
 Alpha  occ. eigenvalues --   -0.73738  -0.73611  -0.73120  -0.72934  -0.72455
 Alpha  occ. eigenvalues --   -0.72316  -0.72253  -0.72100  -0.71986  -0.71761
 Alpha  occ. eigenvalues --   -0.71726  -0.71452  -0.70725  -0.70529  -0.69904
 Alpha  occ. eigenvalues --   -0.69597  -0.69352  -0.69039  -0.68727  -0.67759
 Alpha  occ. eigenvalues --   -0.64563  -0.63934  -0.63358  -0.62895  -0.61550
 Alpha  occ. eigenvalues --   -0.59643  -0.56602  -0.56112
 Alpha virt. eigenvalues --   -0.30958  -0.29371  -0.27663  -0.26925  -0.23887
 Alpha virt. eigenvalues --   -0.22254  -0.20771  -0.19998  -0.19689  -0.19343
 Alpha virt. eigenvalues --   -0.18490  -0.17894  -0.17832  -0.16734  -0.15315

  Beta  occ. eigenvalues --  -88.56404 -88.51428 -14.43627 -14.43626 -14.43206
  Beta  occ. eigenvalues --  -14.42990 -10.36404 -10.36353 -10.35944 -10.35850
  Beta  occ. eigenvalues --  -10.35693 -10.35334 -10.35205 -10.33124 -10.32653
  Beta  occ. eigenvalues --  -10.32492 -10.32231 -10.31308 -10.31025 -10.30871
  Beta  occ. eigenvalues --  -10.30822 -10.30632 -10.30561 -10.29697 -10.28825
  Beta  occ. eigenvalues --  -10.28793 -10.28738 -10.28191 -10.28136 -10.28130
  Beta  occ. eigenvalues --  -10.27896 -10.27664  -8.15303  -8.10649  -6.17412
  Beta  occ. eigenvalues --   -6.16893  -6.16524  -6.12807  -6.12324  -6.11706
  Beta  occ. eigenvalues --   -1.32042  -1.31599  -1.28958  -1.28513  -1.24727
  Beta  occ. eigenvalues --   -1.24117  -1.23733  -1.22161  -1.17413  -1.14992
  Beta  occ. eigenvalues --   -1.12173  -1.11272  -1.07445  -1.06285  -1.04923
  Beta  occ. eigenvalues --   -1.04759  -1.04515  -1.04119  -1.03858  -1.03476
  Beta  occ. eigenvalues --   -1.02645  -1.02303  -0.99777  -0.98371  -0.96939
  Beta  occ. eigenvalues --   -0.95432  -0.90956  -0.90589  -0.87731  -0.87466
  Beta  occ. eigenvalues --   -0.87288  -0.87119  -0.85600  -0.85248  -0.84651
  Beta  occ. eigenvalues --   -0.83684  -0.83101  -0.82738  -0.82477  -0.81820
  Beta  occ. eigenvalues --   -0.81651  -0.81032  -0.80287  -0.80040  -0.79880
  Beta  occ. eigenvalues --   -0.79446  -0.79062  -0.78295  -0.77210  -0.76534
  Beta  occ. eigenvalues --   -0.75498  -0.74723  -0.74521  -0.74378  -0.73932
  Beta  occ. eigenvalues --   -0.73701  -0.73462  -0.72972  -0.72788  -0.72403
  Beta  occ. eigenvalues --   -0.72273  -0.72235  -0.72035  -0.71888  -0.71755
  Beta  occ. eigenvalues --   -0.71697  -0.71429  -0.70521  -0.70397  -0.69865
  Beta  occ. eigenvalues --   -0.69569  -0.69300  -0.68838  -0.67226  -0.66685
  Beta  occ. eigenvalues --   -0.64192  -0.63631  -0.63234  -0.62859  -0.58175
  Beta  occ. eigenvalues --   -0.56432  -0.55660
  Beta virt. eigenvalues --   -0.44845  -0.30545  -0.28780  -0.27050  -0.26189
  Beta virt. eigenvalues --   -0.23521  -0.21990  -0.20515  -0.19814  -0.19599
  Beta virt. eigenvalues --   -0.19324  -0.18324  -0.17837  -0.17663  -0.16333

 Mulliken charges and spin densities:
               1          2
     1  C   -0.088146   0.072349
     2  C   -0.289673   0.018848
     3  S    0.331764   0.402568
     4  C    0.080464   0.092843
     5  C   -0.107892   0.029966
     6  C   -0.166161   0.061892
     7  C    0.075980  -0.057465
     8  C   -0.115400  -0.049423
     9  H    0.200424  -0.004853
    10  C   -0.038998   0.001703
    11  C   -0.020992  -0.032821
    12  C   -0.064780   0.083598
    13  C    0.121189   0.005638
    14  H    0.210809   0.000497
    15  H    0.170461   0.000670
    16  H    0.191765  -0.002682
    17  C   -0.050539   0.178087
    18  H    0.224507  -0.001526
    19  H    0.132292  -0.002242
    20  H    0.167394   0.001780
    21  H    0.193755  -0.007339
    22  S    0.168008   0.169498
    23  C   -0.528780  -0.004869
    24  C    0.096092  -0.000340
    25  C    0.081194  -0.001314
    26  N    0.040779   0.015680
    27  N    0.037398   0.017190
    28  C   -0.255785  -0.000483
    29  H    0.197513   0.000999
    30  H    0.134295  -0.000116
    31  H    0.191344   0.000737
    32  C   -0.258033  -0.000651
    33  H    0.188813   0.000696
    34  H    0.200716   0.000941
    35  H    0.152543   0.000086
    36  C   -0.261837  -0.000757
    37  H    0.194993   0.001044
    38  H    0.141001  -0.000069
    39  H    0.195026   0.001040
    40  C   -0.262686  -0.000644
    41  H    0.188234   0.000730
    42  H    0.203542   0.001009
    43  H    0.153150   0.000068
    44  C   -0.485252   0.005576
    45  C    0.094021  -0.003965
    46  C    0.084652  -0.004362
    47  N    0.036416   0.003532
    48  N    0.033338   0.005002
    49  C   -0.257242   0.000291
    50  H    0.196154   0.000313
    51  H    0.137393  -0.000128
    52  H    0.191578  -0.000007
    53  C   -0.260876  -0.000184
    54  H    0.187940   0.000129
    55  H    0.200150   0.000305
    56  H    0.151606   0.000055
    57  C   -0.257620  -0.000167
    58  H    0.191897   0.000262
    59  H    0.128789  -0.000052
    60  H    0.192664   0.000441
    61  C   -0.262810  -0.000184
    62  H    0.185346   0.000230
    63  H    0.201103   0.000333
    64  H    0.155007   0.000016
 Sum of Mulliken charges =   3.00000   1.00000

 Dipole moment (field-independent basis, Debye):
    X=             -0.1717    Y=              2.0566    Z=             -0.2406  Tot=              2.0777
 Quadrupole moment (field-independent basis, Debye-Ang):
   XX=            369.8957   YY=           -121.6729   ZZ=           -172.9655
   XY=             -6.2708   XZ=              3.8146   YZ=             -1.4625

 Normal termination of Gaussian 16 at Wed Jan 27 14:37:32 2021.
