 Gaussian 16, Revision A.03,
 Gaussian 16:  EM64L-G16RevA.03 25-Dec-2016

 ----------------------------------------------------------------------
 #P LC-wHPBE/TZVP iop(3/107=0190200000, 3/108=0190200000) scf=(conver=6
 ,fermi,ndamp=35,noincfock,novaracc,vshift=500,xqc)
 ----------------------------------------------------------------------

 -------------
 H32 C26 S2 N4
 -------------
 Symbolic Z-matrix:
 Charge =  3 Multiplicity = 2

                         Standard orientation:
 ---------------------------------------------------------------------
 Center     Atomic      Atomic             Coordinates (Angstroms)
 Number     Number       Type             X           Y           Z
 ---------------------------------------------------------------------
      1          6           0        2.928949   -0.209586    0.466429
      2          6           0        1.563914   -0.061175    0.303790
      3         16           0        0.549634   -0.929940    1.465043
      4          6           0        1.080492    0.744795   -0.706590
      5          6           0       -1.720975   -1.178026   -0.124019
      6          6           0       -1.104728   -0.556786    0.961278
      7          6           0        3.804439    0.453059   -0.373760
      8          6           0        1.957571    1.398720   -1.546095
      9          1           0        0.017059    0.867388   -0.843825
     10          6           0       -3.055310   -0.905897   -0.375396
     11          6           0       -1.834379    0.303673    1.763498
     12          6           0       -3.157322    0.570140    1.506853
     13          6           0       -3.772824   -0.043708    0.429435
     14          1           0       -3.535939   -1.385849   -1.215765
     15          1           0       -1.346414    0.763075    2.610001
     16          1           0       -3.711030    1.227115    2.160412
     17          6           0        3.316329    1.262630   -1.386512
     18          1           0        3.309964   -0.825983    1.268943
     19          1           0        0.121390   -2.546838   -0.437504
     20          1           0        1.570409    2.020933   -2.339064
     21          1           0        3.993957    1.766527   -2.059405
     22         16           0       -0.923466   -2.279512   -1.229412
     23          6           0       -5.179371    0.186625    0.159910
     24          6           0       -6.258258    1.013194    0.194238
     25          6           0       -6.373984   -0.291545   -0.281001
     26          7           0       -6.778879    2.172200    0.466391
     27          7           0       -7.085837   -1.264246   -0.765069
     28          6           0       -5.943792    3.274283    0.907684
     29          1           0       -6.187951    3.545500    1.931936
     30          1           0       -4.898805    2.994168    0.846509
     31          1           0       -6.108951    4.134804    0.264794
     32          6           0       -8.194976    2.451187    0.318309
     33          1           0       -8.537142    3.011091    1.183702
     34          1           0       -8.380874    3.039067   -0.577705
     35          1           0       -8.758216    1.527533    0.273817
     36          6           0       -6.515968   -2.589608   -0.931428
     37          1           0       -6.460524   -2.846499   -1.986434
     38          1           0       -5.524243   -2.624805   -0.496396
     39          1           0       -7.140387   -3.318442   -0.421721
     40          6           0       -8.484929   -1.112006   -1.118438
     41          1           0       -8.667734   -1.621246   -2.059984
     42          1           0       -9.125917   -1.545202   -0.353886
     43          1           0       -8.728287   -0.065327   -1.252120
     44          6           0        5.234909    0.301436   -0.192555
     45          6           0        6.482207    0.837696   -0.274291
     46          6           0        6.296202   -0.469144    0.166373
     47          7           0        7.258316    1.842942   -0.551570
     48          7           0        6.771609   -1.601745    0.593499
     49          6           0        6.699705    3.135271   -0.904858
     50          1           0        6.943427    3.382636   -1.935256
     51          1           0        5.623434    3.119821   -0.780416
     52          1           0        7.111169    3.899344   -0.250646
     53          6           0        8.704916    1.757804   -0.486526
     54          1           0        9.127537    2.257490   -1.353238
     55          1           0        9.080352    2.238157    0.414316
     56          1           0        9.022841    0.722915   -0.509579
     57          6           0        5.902929   -2.750782    0.768792
     58          1           0        5.850729   -3.027562    1.819029
     59          1           0        4.908582   -2.521281    0.404440
     60          1           0        6.292204   -3.591280    0.200176
     61          6           0        8.181475   -1.806186    0.866823
     62          1           0        8.283723   -2.375263    1.786100
     63          1           0        8.657299   -2.356258    0.057912
     64          1           0        8.679880   -0.854950    1.006340
 ---------------------------------------------------------------------

 SCF Done:  E(ULC-wHPBE) =  -2023.31823596     A.U. after   33 cycles
 SCF Done:  E(ULC-wHPBE) =  -2023.31825447     a.u. after    2 cycles

 The electronic state is 2-A.
 Alpha  occ. eigenvalues --  -88.56684 -88.51543 -14.43701 -14.43699 -14.43267
 Alpha  occ. eigenvalues --  -14.43048 -10.36452 -10.36399 -10.35998 -10.35904
 Alpha  occ. eigenvalues --  -10.35810 -10.35468 -10.35314 -10.33191 -10.32699
 Alpha  occ. eigenvalues --  -10.32504 -10.32298 -10.31471 -10.31054 -10.31003
 Alpha  occ. eigenvalues --  -10.30918 -10.30836 -10.30780 -10.29709 -10.28878
 Alpha  occ. eigenvalues --  -10.28837 -10.28782 -10.28245 -10.28180 -10.28173
 Alpha  occ. eigenvalues --  -10.27948 -10.27716  -8.15588  -8.10766  -6.17620
 Alpha  occ. eigenvalues --   -6.17210  -6.17047  -6.12902  -6.12420  -6.11940
 Alpha  occ. eigenvalues --   -1.32123  -1.31662  -1.29049  -1.28579  -1.25000
 Alpha  occ. eigenvalues --   -1.24266  -1.23878  -1.22418  -1.17918  -1.15310
 Alpha  occ. eigenvalues --   -1.12409  -1.11450  -1.07954  -1.06744  -1.05007
 Alpha  occ. eigenvalues --   -1.04822  -1.04570  -1.04177  -1.03908  -1.03530
 Alpha  occ. eigenvalues --   -1.02717  -1.02373  -1.00021  -0.98567  -0.97160
 Alpha  occ. eigenvalues --   -0.95715  -0.91142  -0.90736  -0.87811  -0.87538
 Alpha  occ. eigenvalues --   -0.87365  -0.87185  -0.85815  -0.85447  -0.84838
 Alpha  occ. eigenvalues --   -0.83805  -0.83196  -0.82814  -0.82580  -0.81920
 Alpha  occ. eigenvalues --   -0.81726  -0.81110  -0.80408  -0.80217  -0.79948
 Alpha  occ. eigenvalues --   -0.79659  -0.79186  -0.78529  -0.77767  -0.76831
 Alpha  occ. eigenvalues --   -0.75689  -0.74809  -0.74727  -0.74579  -0.73981
 Alpha  occ. eigenvalues --   -0.73779  -0.73648  -0.73165  -0.72976  -0.72489
 Alpha  occ. eigenvalues --   -0.72358  -0.72286  -0.72134  -0.72027  -0.71793
 Alpha  occ. eigenvalues --   -0.71767  -0.71493  -0.70769  -0.70560  -0.69935
 Alpha  occ. eigenvalues --   -0.69637  -0.69384  -0.69085  -0.68771  -0.67788
 Alpha  occ. eigenvalues --   -0.64593  -0.63974  -0.63386  -0.62932  -0.61597
 Alpha  occ. eigenvalues --   -0.59663  -0.56622  -0.56141
 Alpha virt. eigenvalues --   -0.30937  -0.29361  -0.27644  -0.26907  -0.23865
 Alpha virt. eigenvalues --   -0.22229  -0.20744  -0.19977  -0.19657  -0.19321
 Alpha virt. eigenvalues --   -0.18466  -0.17874  -0.17806  -0.16709  -0.15293

  Beta  occ. eigenvalues --  -88.56481 -88.51466 -14.43668 -14.43667 -14.43258
  Beta  occ. eigenvalues --  -14.43042 -10.36453 -10.36402 -10.36003 -10.35909
  Beta  occ. eigenvalues --  -10.35742 -10.35387 -10.35272 -10.33172 -10.32699
  Beta  occ. eigenvalues --  -10.32554 -10.32288 -10.31374 -10.31077 -10.30919
  Beta  occ. eigenvalues --  -10.30886 -10.30677 -10.30625 -10.29759 -10.28878
  Beta  occ. eigenvalues --  -10.28838 -10.28783 -10.28245 -10.28181 -10.28174
  Beta  occ. eigenvalues --  -10.27948 -10.27716  -8.15381  -8.10689  -6.17488
  Beta  occ. eigenvalues --   -6.16969  -6.16601  -6.12846  -6.12363  -6.11744
  Beta  occ. eigenvalues --   -1.32090  -1.31657  -1.29004  -1.28568  -1.24781
  Beta  occ. eigenvalues --   -1.24172  -1.23787  -1.22223  -1.17474  -1.15042
  Beta  occ. eigenvalues --   -1.12230  -1.11335  -1.07500  -1.06333  -1.04969
  Beta  occ. eigenvalues --   -1.04813  -1.04560  -1.04172  -1.03901  -1.03529
  Beta  occ. eigenvalues --   -1.02688  -1.02355  -0.99832  -0.98423  -0.96986
  Beta  occ. eigenvalues --   -0.95488  -0.91004  -0.90636  -0.87770  -0.87513
  Beta  occ. eigenvalues --   -0.87327  -0.87167  -0.85642  -0.85298  -0.84699
  Beta  occ. eigenvalues --   -0.83730  -0.83141  -0.82783  -0.82522  -0.81864
  Beta  occ. eigenvalues --   -0.81687  -0.81077  -0.80325  -0.80081  -0.79926
  Beta  occ. eigenvalues --   -0.79485  -0.79106  -0.78341  -0.77261  -0.76574
  Beta  occ. eigenvalues --   -0.75533  -0.74766  -0.74557  -0.74420  -0.73966
  Beta  occ. eigenvalues --   -0.73743  -0.73498  -0.73018  -0.72829  -0.72437
  Beta  occ. eigenvalues --   -0.72314  -0.72269  -0.72069  -0.71928  -0.71788
  Beta  occ. eigenvalues --   -0.71738  -0.71470  -0.70565  -0.70428  -0.69897
  Beta  occ. eigenvalues --   -0.69609  -0.69332  -0.68879  -0.67261  -0.66716
  Beta  occ. eigenvalues --   -0.64221  -0.63671  -0.63263  -0.62897  -0.58196
  Beta  occ. eigenvalues --   -0.56454  -0.55691
  Beta virt. eigenvalues --   -0.44840  -0.30525  -0.28766  -0.27027  -0.26171
  Beta virt. eigenvalues --   -0.23499  -0.21964  -0.20489  -0.19792  -0.19568
  Beta virt. eigenvalues --   -0.19302  -0.18300  -0.17816  -0.17639  -0.16308

 Mulliken charges and spin densities:
               1          2
     1  C   -0.088117   0.072943
     2  C   -0.289759   0.018716
     3  S    0.332619   0.404085
     4  C    0.080477   0.093162
     5  C   -0.107866   0.029950
     6  C   -0.166526   0.061573
     7  C    0.075902  -0.057875
     8  C   -0.115409  -0.049771
     9  H    0.200594  -0.004872
    10  C   -0.039070   0.001622
    11  C   -0.021026  -0.032649
    12  C   -0.064974   0.083020
    13  C    0.121139   0.005764
    14  H    0.210909   0.000500
    15  H    0.170513   0.000660
    16  H    0.191838  -0.002656
    17  C   -0.050453   0.178650
    18  H    0.224662  -0.001551
    19  H    0.132147  -0.002239
    20  H    0.167527   0.001792
    21  H    0.193902  -0.007358
    22  S    0.167744   0.168711
    23  C   -0.528740  -0.004948
    24  C    0.096071  -0.000309
    25  C    0.081169  -0.001279
    26  N    0.040674   0.015545
    27  N    0.037293   0.017040
    28  C   -0.255671  -0.000481
    29  H    0.197465   0.000989
    30  H    0.134232  -0.000116
    31  H    0.191290   0.000730
    32  C   -0.257921  -0.000647
    33  H    0.188762   0.000690
    34  H    0.200670   0.000931
    35  H    0.152488   0.000085
    36  C   -0.261720  -0.000754
    37  H    0.194949   0.001034
    38  H    0.140941  -0.000068
    39  H    0.194972   0.001030
    40  C   -0.262576  -0.000640
    41  H    0.188183   0.000723
    42  H    0.203497   0.000998
    43  H    0.153094   0.000068
    44  C   -0.485249   0.005605
    45  C    0.093996  -0.003975
    46  C    0.084626  -0.004373
    47  N    0.036344   0.003433
    48  N    0.033261   0.004893
    49  C   -0.257124   0.000295
    50  H    0.196141   0.000307
    51  H    0.137312  -0.000129
    52  H    0.191557  -0.000011
    53  C   -0.260765  -0.000180
    54  H    0.187914   0.000125
    55  H    0.200133   0.000298
    56  H    0.151560   0.000054
    57  C   -0.257499  -0.000162
    58  H    0.191881   0.000255
    59  H    0.128706  -0.000053
    60  H    0.192646   0.000434
    61  C   -0.262700  -0.000181
    62  H    0.185318   0.000225
    63  H    0.201087   0.000326
    64  H    0.154961   0.000016
 Sum of Mulliken charges =   3.00000   1.00000

 Dipole moment (field-independent basis, Debye):
    X=             -0.1493    Y=              2.0598    Z=             -0.2367  Tot=              2.0787
 Quadrupole moment (field-independent basis, Debye-Ang):
   XX=            369.7959   YY=           -121.6922   ZZ=           -172.9581
   XY=             -6.2657   XZ=              3.8111   YZ=             -1.4799

 Normal termination of Gaussian 16 at Wed Jan 27 16:09:51 2021.
