 Gaussian 16, Revision A.03,
 Gaussian 16:  EM64L-G16RevA.03 25-Dec-2016

 ----------------------------------------------------------------------
 #P LC-wHPBE/TZVP iop(3/107=0189300000, 3/108=0189300000) scf=(conver=6
 ,fermi,ndamp=35,noincfock,novaracc,vshift=500,xqc)
 ----------------------------------------------------------------------

 -------------
 H32 C26 S2 N4
 -------------
 Symbolic Z-matrix:
 Charge =  2 Multiplicity = 1

                         Standard orientation:
 ---------------------------------------------------------------------
 Center     Atomic      Atomic             Coordinates (Angstroms)
 Number     Number       Type             X           Y           Z
 ---------------------------------------------------------------------
      1          6           0        2.928949   -0.209586    0.466429
      2          6           0        1.563914   -0.061175    0.303790
      3         16           0        0.549634   -0.929940    1.465043
      4          6           0        1.080492    0.744795   -0.706590
      5          6           0       -1.720975   -1.178026   -0.124019
      6          6           0       -1.104728   -0.556786    0.961278
      7          6           0        3.804439    0.453059   -0.373760
      8          6           0        1.957571    1.398720   -1.546095
      9          1           0        0.017059    0.867388   -0.843825
     10          6           0       -3.055310   -0.905897   -0.375396
     11          6           0       -1.834379    0.303673    1.763498
     12          6           0       -3.157322    0.570140    1.506853
     13          6           0       -3.772824   -0.043708    0.429435
     14          1           0       -3.535939   -1.385849   -1.215765
     15          1           0       -1.346414    0.763075    2.610001
     16          1           0       -3.711030    1.227115    2.160412
     17          6           0        3.316329    1.262630   -1.386512
     18          1           0        3.309964   -0.825983    1.268943
     19          1           0        0.121390   -2.546838   -0.437504
     20          1           0        1.570409    2.020933   -2.339064
     21          1           0        3.993957    1.766527   -2.059405
     22         16           0       -0.923466   -2.279512   -1.229412
     23          6           0       -5.179371    0.186625    0.159910
     24          6           0       -6.258258    1.013194    0.194238
     25          6           0       -6.373984   -0.291545   -0.281001
     26          7           0       -6.778879    2.172200    0.466391
     27          7           0       -7.085837   -1.264246   -0.765069
     28          6           0       -5.943792    3.274283    0.907684
     29          1           0       -6.187951    3.545500    1.931936
     30          1           0       -4.898805    2.994168    0.846509
     31          1           0       -6.108951    4.134804    0.264794
     32          6           0       -8.194976    2.451187    0.318309
     33          1           0       -8.537142    3.011091    1.183702
     34          1           0       -8.380874    3.039067   -0.577705
     35          1           0       -8.758216    1.527533    0.273817
     36          6           0       -6.515968   -2.589608   -0.931428
     37          1           0       -6.460524   -2.846499   -1.986434
     38          1           0       -5.524243   -2.624805   -0.496396
     39          1           0       -7.140387   -3.318442   -0.421721
     40          6           0       -8.484929   -1.112006   -1.118438
     41          1           0       -8.667734   -1.621246   -2.059984
     42          1           0       -9.125917   -1.545202   -0.353886
     43          1           0       -8.728287   -0.065327   -1.252120
     44          6           0        5.234909    0.301436   -0.192555
     45          6           0        6.482207    0.837696   -0.274291
     46          6           0        6.296202   -0.469144    0.166373
     47          7           0        7.258316    1.842942   -0.551570
     48          7           0        6.771609   -1.601745    0.593499
     49          6           0        6.699705    3.135271   -0.904858
     50          1           0        6.943427    3.382636   -1.935256
     51          1           0        5.623434    3.119821   -0.780416
     52          1           0        7.111169    3.899344   -0.250646
     53          6           0        8.704916    1.757804   -0.486526
     54          1           0        9.127537    2.257490   -1.353238
     55          1           0        9.080352    2.238157    0.414316
     56          1           0        9.022841    0.722915   -0.509579
     57          6           0        5.902929   -2.750782    0.768792
     58          1           0        5.850729   -3.027562    1.819029
     59          1           0        4.908582   -2.521281    0.404440
     60          1           0        6.292204   -3.591280    0.200176
     61          6           0        8.181475   -1.806186    0.866823
     62          1           0        8.283723   -2.375263    1.786100
     63          1           0        8.657299   -2.356258    0.057912
     64          1           0        8.679880   -0.854950    1.006340
 ---------------------------------------------------------------------

 SCF Done:  E(RLC-wHPBE) =  -2023.76556199     A.U. after   16 cycles

 The electronic state is 1-A.
 Alpha  occ. eigenvalues --  -88.37525 -88.36169 -14.34551 -14.34494 -14.34110
 Alpha  occ. eigenvalues --  -14.34055 -10.27042 -10.26989 -10.26564 -10.26511
 Alpha  occ. eigenvalues --  -10.23200 -10.22759 -10.21613 -10.20859 -10.20600
 Alpha  occ. eigenvalues --  -10.20588 -10.20552 -10.20531 -10.20531 -10.20343
 Alpha  occ. eigenvalues --  -10.20271 -10.20222 -10.20201 -10.20024 -10.19791
 Alpha  occ. eigenvalues --  -10.18315 -10.17803 -10.17800 -10.17747 -10.17015
 Alpha  occ. eigenvalues --  -10.16851 -10.16650  -7.96729  -7.95528  -5.98962
 Alpha  occ. eigenvalues --   -5.98442  -5.97717  -5.97704  -5.97231  -5.96528
 Alpha  occ. eigenvalues --   -1.23005  -1.22575  -1.20221  -1.19805  -1.15086
 Alpha  occ. eigenvalues --   -1.14661  -1.10497  -1.08896  -1.03562  -1.01237
 Alpha  occ. eigenvalues --   -0.99214  -0.98271  -0.96771  -0.96446  -0.96394
 Alpha  occ. eigenvalues --   -0.96100  -0.95320  -0.94939  -0.94421  -0.93883
 Alpha  occ. eigenvalues --   -0.93636  -0.92488  -0.87075  -0.85715  -0.83908
 Alpha  occ. eigenvalues --   -0.82567  -0.79417  -0.79304  -0.79035  -0.78765
 Alpha  occ. eigenvalues --   -0.78202  -0.77710  -0.74744  -0.74454  -0.74287
 Alpha  occ. eigenvalues --   -0.74040  -0.73646  -0.73136  -0.72123  -0.72026
 Alpha  occ. eigenvalues --   -0.71740  -0.71635  -0.70604  -0.69551  -0.67298
 Alpha  occ. eigenvalues --   -0.67057  -0.66625  -0.66521  -0.66381  -0.66132
 Alpha  occ. eigenvalues --   -0.65882  -0.65764  -0.65654  -0.65052  -0.64636
 Alpha  occ. eigenvalues --   -0.64427  -0.64326  -0.64115  -0.63816  -0.63681
 Alpha  occ. eigenvalues --   -0.63570  -0.63261  -0.62459  -0.62276  -0.61995
 Alpha  occ. eigenvalues --   -0.61902  -0.61305  -0.60373  -0.60282  -0.58388
 Alpha  occ. eigenvalues --   -0.57883  -0.56814  -0.56275  -0.54842  -0.54619
 Alpha  occ. eigenvalues --   -0.54428  -0.53816  -0.51694  -0.51369  -0.47197
 Alpha  occ. eigenvalues --   -0.46727  -0.45298  -0.44890
 Alpha virt. eigenvalues --   -0.18711  -0.17458  -0.14564  -0.13580  -0.10896
 Alpha virt. eigenvalues --   -0.10643  -0.10300  -0.09920  -0.09250  -0.08958
 Alpha virt. eigenvalues --   -0.08676  -0.07156  -0.06327  -0.05962  -0.05042

 Mulliken charges:
               1
     1  C   -0.123185
     2  C   -0.245594
     3  S    0.089262
     4  C    0.056530
     5  C   -0.075691
     6  C   -0.154653
     7  C    0.100291
     8  C   -0.130041
     9  H    0.176856
    10  C   -0.078368
    11  C   -0.048769
    12  C   -0.094043
    13  C    0.132724
    14  H    0.178177
    15  H    0.142538
    16  H    0.157449
    17  C   -0.108076
    18  H    0.187250
    19  H    0.127879
    20  H    0.131177
    21  H    0.155877
    22  S    0.011258
    23  C   -0.509301
    24  C    0.086985
    25  C    0.071621
    26  N    0.024164
    27  N    0.021154
    28  C   -0.257281
    29  H    0.180059
    30  H    0.151580
    31  H    0.173383
    32  C   -0.255879
    33  H    0.174396
    34  H    0.184782
    35  H    0.146365
    36  C   -0.261882
    37  H    0.179809
    38  H    0.158530
    39  H    0.175693
    40  C   -0.260614
    41  H    0.174830
    42  H    0.186721
    43  H    0.146704
    44  C   -0.469698
    45  C    0.086216
    46  C    0.078456
    47  N    0.020975
    48  N    0.019724
    49  C   -0.258387
    50  H    0.178592
    51  H    0.154980
    52  H    0.173043
    53  C   -0.258555
    54  H    0.173773
    55  H    0.184320
    56  H    0.146258
    57  C   -0.258746
    58  H    0.177573
    59  H    0.152019
    60  H    0.173635
    61  C   -0.260602
    62  H    0.172936
    63  H    0.184898
    64  H    0.147923
 Sum of Mulliken charges =   2.00000

 Dipole moment (field-independent basis, Debye):
    X=             -0.3800    Y=              3.2473    Z=             -0.5860  Tot=              3.3216
 Quadrupole moment (field-independent basis, Debye-Ang):
   XX=            270.0859   YY=           -143.0489   ZZ=           -187.0928
   XY=             -8.5159   XZ=              5.3461   YZ=             -1.2511

 Normal termination of Gaussian 16 at Wed Jan 27 13:24:07 2021.
