 Gaussian 16, Revision A.03,
 Gaussian 16:  EM64L-G16RevA.03 25-Dec-2016

 ----------------------------------------------------------------------
 #P LC-wHPBE/TZVP iop(3/107=0156200000, 3/108=0156200000) scf=(conver=6
 ,fermi,ndamp=35,noincfock,novaracc,vshift=500,xqc)
 ----------------------------------------------------------------------

 -------------
 H32 C26 S2 N4
 -------------
 Symbolic Z-matrix:
 Charge =  2 Multiplicity = 1

                         Standard orientation:
 ---------------------------------------------------------------------
 Center     Atomic      Atomic             Coordinates (Angstroms)
 Number     Number       Type             X           Y           Z
 ---------------------------------------------------------------------
      1          6           0        2.928949   -0.209586    0.466429
      2          6           0        1.563914   -0.061175    0.303790
      3         16           0        0.549634   -0.929940    1.465043
      4          6           0        1.080492    0.744795   -0.706590
      5          6           0       -1.720975   -1.178026   -0.124019
      6          6           0       -1.104728   -0.556786    0.961278
      7          6           0        3.804439    0.453059   -0.373760
      8          6           0        1.957571    1.398720   -1.546095
      9          1           0        0.017059    0.867388   -0.843825
     10          6           0       -3.055310   -0.905897   -0.375396
     11          6           0       -1.834379    0.303673    1.763498
     12          6           0       -3.157322    0.570140    1.506853
     13          6           0       -3.772824   -0.043708    0.429435
     14          1           0       -3.535939   -1.385849   -1.215765
     15          1           0       -1.346414    0.763075    2.610001
     16          1           0       -3.711030    1.227115    2.160412
     17          6           0        3.316329    1.262630   -1.386512
     18          1           0        3.309964   -0.825983    1.268943
     19          1           0        0.121390   -2.546838   -0.437504
     20          1           0        1.570409    2.020933   -2.339064
     21          1           0        3.993957    1.766527   -2.059405
     22         16           0       -0.923466   -2.279512   -1.229412
     23          6           0       -5.179371    0.186625    0.159910
     24          6           0       -6.258258    1.013194    0.194238
     25          6           0       -6.373984   -0.291545   -0.281001
     26          7           0       -6.778879    2.172200    0.466391
     27          7           0       -7.085837   -1.264246   -0.765069
     28          6           0       -5.943792    3.274283    0.907684
     29          1           0       -6.187951    3.545500    1.931936
     30          1           0       -4.898805    2.994168    0.846509
     31          1           0       -6.108951    4.134804    0.264794
     32          6           0       -8.194976    2.451187    0.318309
     33          1           0       -8.537142    3.011091    1.183702
     34          1           0       -8.380874    3.039067   -0.577705
     35          1           0       -8.758216    1.527533    0.273817
     36          6           0       -6.515968   -2.589608   -0.931428
     37          1           0       -6.460524   -2.846499   -1.986434
     38          1           0       -5.524243   -2.624805   -0.496396
     39          1           0       -7.140387   -3.318442   -0.421721
     40          6           0       -8.484929   -1.112006   -1.118438
     41          1           0       -8.667734   -1.621246   -2.059984
     42          1           0       -9.125917   -1.545202   -0.353886
     43          1           0       -8.728287   -0.065327   -1.252120
     44          6           0        5.234909    0.301436   -0.192555
     45          6           0        6.482207    0.837696   -0.274291
     46          6           0        6.296202   -0.469144    0.166373
     47          7           0        7.258316    1.842942   -0.551570
     48          7           0        6.771609   -1.601745    0.593499
     49          6           0        6.699705    3.135271   -0.904858
     50          1           0        6.943427    3.382636   -1.935256
     51          1           0        5.623434    3.119821   -0.780416
     52          1           0        7.111169    3.899344   -0.250646
     53          6           0        8.704916    1.757804   -0.486526
     54          1           0        9.127537    2.257490   -1.353238
     55          1           0        9.080352    2.238157    0.414316
     56          1           0        9.022841    0.722915   -0.509579
     57          6           0        5.902929   -2.750782    0.768792
     58          1           0        5.850729   -3.027562    1.819029
     59          1           0        4.908582   -2.521281    0.404440
     60          1           0        6.292204   -3.591280    0.200176
     61          6           0        8.181475   -1.806186    0.866823
     62          1           0        8.283723   -2.375263    1.786100
     63          1           0        8.657299   -2.356258    0.057912
     64          1           0        8.679880   -0.854950    1.006340
 ---------------------------------------------------------------------

 SCF Done:  E(RLC-wHPBE) =  -2023.69780346     A.U. after   16 cycles

 The electronic state is 1-A.
 Alpha  occ. eigenvalues --  -88.35748 -88.34414 -14.32727 -14.32672 -14.32284
 Alpha  occ. eigenvalues --  -14.32227 -10.25011 -10.24957 -10.24528 -10.24476
 Alpha  occ. eigenvalues --  -10.21246 -10.20796 -10.19706 -10.18959 -10.18734
 Alpha  occ. eigenvalues --  -10.18681 -10.18679 -10.18674 -10.18639 -10.18492
 Alpha  occ. eigenvalues --  -10.18415 -10.18366 -10.18343 -10.18163 -10.17880
 Alpha  occ. eigenvalues --  -10.16427 -10.15915 -10.15899 -10.15846 -10.15105
 Alpha  occ. eigenvalues --  -10.14961 -10.14764  -7.94918  -7.93743  -5.97178
 Alpha  occ. eigenvalues --   -5.96667  -5.95958  -5.95941  -5.95480  -5.94787
 Alpha  occ. eigenvalues --   -1.20993  -1.20560  -1.18275  -1.17854  -1.13125
 Alpha  occ. eigenvalues --   -1.12696  -1.08490  -1.06889  -1.01590  -0.99300
 Alpha  occ. eigenvalues --   -0.97270  -0.96329  -0.94881  -0.94570  -0.94503
 Alpha  occ. eigenvalues --   -0.94220  -0.93469  -0.93083  -0.92582  -0.92049
 Alpha  occ. eigenvalues --   -0.91782  -0.90634  -0.85252  -0.83921  -0.82130
 Alpha  occ. eigenvalues --   -0.80788  -0.77730  -0.77628  -0.77359  -0.77095
 Alpha  occ. eigenvalues --   -0.76522  -0.76024  -0.73103  -0.72723  -0.72654
 Alpha  occ. eigenvalues --   -0.72292  -0.72055  -0.71551  -0.70512  -0.70387
 Alpha  occ. eigenvalues --   -0.70101  -0.70004  -0.69014  -0.67992  -0.65736
 Alpha  occ. eigenvalues --   -0.65474  -0.65025  -0.64959  -0.64883  -0.64604
 Alpha  occ. eigenvalues --   -0.64378  -0.64223  -0.64122  -0.63511  -0.63134
 Alpha  occ. eigenvalues --   -0.62931  -0.62823  -0.62613  -0.62318  -0.62158
 Alpha  occ. eigenvalues --   -0.62104  -0.61797  -0.60979  -0.60825  -0.60522
 Alpha  occ. eigenvalues --   -0.60404  -0.59852  -0.58954  -0.58861  -0.57013
 Alpha  occ. eigenvalues --   -0.56520  -0.55497  -0.54956  -0.53469  -0.53274
 Alpha  occ. eigenvalues --   -0.53050  -0.52511  -0.50500  -0.50143  -0.46149
 Alpha  occ. eigenvalues --   -0.45669  -0.44233  -0.43838
 Alpha virt. eigenvalues --   -0.19512  -0.18288  -0.15476  -0.14502  -0.11924
 Alpha virt. eigenvalues --   -0.11683  -0.11315  -0.10911  -0.10194  -0.10000
 Alpha virt. eigenvalues --   -0.09737  -0.08219  -0.07239  -0.06878  -0.06042

 Mulliken charges:
               1
     1  C   -0.119831
     2  C   -0.248626
     3  S    0.084174
     4  C    0.062226
     5  C   -0.077646
     6  C   -0.142430
     7  C    0.100888
     8  C   -0.129308
     9  H    0.174253
    10  C   -0.076777
    11  C   -0.047895
    12  C   -0.091675
    13  C    0.135422
    14  H    0.174405
    15  H    0.139218
    16  H    0.154407
    17  C   -0.105124
    18  H    0.183969
    19  H    0.127097
    20  H    0.128686
    21  H    0.152848
    22  S    0.010551
    23  C   -0.511677
    24  C    0.088302
    25  C    0.072608
    26  N    0.025755
    27  N    0.022767
    28  C   -0.262365
    29  H    0.181107
    30  H    0.153446
    31  H    0.174685
    32  C   -0.260924
    33  H    0.175644
    34  H    0.185797
    35  H    0.148257
    36  C   -0.267080
    37  H    0.180818
    38  H    0.160503
    39  H    0.177017
    40  C   -0.265595
    41  H    0.176054
    42  H    0.187735
    43  H    0.148553
    44  C   -0.470806
    45  C    0.087358
    46  C    0.079424
    47  N    0.022578
    48  N    0.021365
    49  C   -0.263473
    50  H    0.179614
    51  H    0.156850
    52  H    0.174332
    53  C   -0.263606
    54  H    0.175006
    55  H    0.185315
    56  H    0.148137
    57  C   -0.264007
    58  H    0.178581
    59  H    0.153947
    60  H    0.174940
    61  C   -0.265626
    62  H    0.174151
    63  H    0.185894
    64  H    0.149786
 Sum of Mulliken charges =   2.00000

 Dipole moment (field-independent basis, Debye):
    X=             -0.3935    Y=              3.2032    Z=             -0.5900  Tot=              3.2808
 Quadrupole moment (field-independent basis, Debye-Ang):
   XX=            269.9557   YY=           -142.9931   ZZ=           -187.1913
   XY=             -8.5005   XZ=              5.4322   YZ=             -1.2090

 Normal termination of Gaussian 16 at Wed Jan 27 03:42:27 2021.
