 Gaussian 16, Revision A.03,
 Gaussian 16:  EM64L-G16RevA.03 25-Dec-2016

 ----------------------------------------------------------------------
 #P LC-wHPBE/TZVP iop(3/107=0190700000, 3/108=0190700000) scf=(conver=6
 ,fermi,ndamp=35,noincfock,novaracc,vshift=500,xqc)
 ----------------------------------------------------------------------

 -------------
 H32 C26 S2 N4
 -------------
 Symbolic Z-matrix:
 Charge =  2 Multiplicity = 1

                         Standard orientation:
 ---------------------------------------------------------------------
 Center     Atomic      Atomic             Coordinates (Angstroms)
 Number     Number       Type             X           Y           Z
 ---------------------------------------------------------------------
      1          6           0        2.928949   -0.209586    0.466429
      2          6           0        1.563914   -0.061175    0.303790
      3         16           0        0.549634   -0.929940    1.465043
      4          6           0        1.080492    0.744795   -0.706590
      5          6           0       -1.720975   -1.178026   -0.124019
      6          6           0       -1.104728   -0.556786    0.961278
      7          6           0        3.804439    0.453059   -0.373760
      8          6           0        1.957571    1.398720   -1.546095
      9          1           0        0.017059    0.867388   -0.843825
     10          6           0       -3.055310   -0.905897   -0.375396
     11          6           0       -1.834379    0.303673    1.763498
     12          6           0       -3.157322    0.570140    1.506853
     13          6           0       -3.772824   -0.043708    0.429435
     14          1           0       -3.535939   -1.385849   -1.215765
     15          1           0       -1.346414    0.763075    2.610001
     16          1           0       -3.711030    1.227115    2.160412
     17          6           0        3.316329    1.262630   -1.386512
     18          1           0        3.309964   -0.825983    1.268943
     19          1           0        0.121390   -2.546838   -0.437504
     20          1           0        1.570409    2.020933   -2.339064
     21          1           0        3.993957    1.766527   -2.059405
     22         16           0       -0.923466   -2.279512   -1.229412
     23          6           0       -5.179371    0.186625    0.159910
     24          6           0       -6.258258    1.013194    0.194238
     25          6           0       -6.373984   -0.291545   -0.281001
     26          7           0       -6.778879    2.172200    0.466391
     27          7           0       -7.085837   -1.264246   -0.765069
     28          6           0       -5.943792    3.274283    0.907684
     29          1           0       -6.187951    3.545500    1.931936
     30          1           0       -4.898805    2.994168    0.846509
     31          1           0       -6.108951    4.134804    0.264794
     32          6           0       -8.194976    2.451187    0.318309
     33          1           0       -8.537142    3.011091    1.183702
     34          1           0       -8.380874    3.039067   -0.577705
     35          1           0       -8.758216    1.527533    0.273817
     36          6           0       -6.515968   -2.589608   -0.931428
     37          1           0       -6.460524   -2.846499   -1.986434
     38          1           0       -5.524243   -2.624805   -0.496396
     39          1           0       -7.140387   -3.318442   -0.421721
     40          6           0       -8.484929   -1.112006   -1.118438
     41          1           0       -8.667734   -1.621246   -2.059984
     42          1           0       -9.125917   -1.545202   -0.353886
     43          1           0       -8.728287   -0.065327   -1.252120
     44          6           0        5.234909    0.301436   -0.192555
     45          6           0        6.482207    0.837696   -0.274291
     46          6           0        6.296202   -0.469144    0.166373
     47          7           0        7.258316    1.842942   -0.551570
     48          7           0        6.771609   -1.601745    0.593499
     49          6           0        6.699705    3.135271   -0.904858
     50          1           0        6.943427    3.382636   -1.935256
     51          1           0        5.623434    3.119821   -0.780416
     52          1           0        7.111169    3.899344   -0.250646
     53          6           0        8.704916    1.757804   -0.486526
     54          1           0        9.127537    2.257490   -1.353238
     55          1           0        9.080352    2.238157    0.414316
     56          1           0        9.022841    0.722915   -0.509579
     57          6           0        5.902929   -2.750782    0.768792
     58          1           0        5.850729   -3.027562    1.819029
     59          1           0        4.908582   -2.521281    0.404440
     60          1           0        6.292204   -3.591280    0.200176
     61          6           0        8.181475   -1.806186    0.866823
     62          1           0        8.283723   -2.375263    1.786100
     63          1           0        8.657299   -2.356258    0.057912
     64          1           0        8.679880   -0.854950    1.006340
 ---------------------------------------------------------------------

 SCF Done:  E(RLC-wHPBE) =  -2023.76843262     A.U. after   16 cycles

 The electronic state is 1-A.
 Alpha  occ. eigenvalues --  -88.37601 -88.36244 -14.34628 -14.34570 -14.34187
 Alpha  occ. eigenvalues --  -14.34131 -10.27129 -10.27075 -10.26650 -10.26597
 Alpha  occ. eigenvalues --  -10.23283 -10.22842 -10.21694 -10.20939 -10.20681
 Alpha  occ. eigenvalues --  -10.20666 -10.20633 -10.20610 -10.20609 -10.20421
 Alpha  occ. eigenvalues --  -10.20350 -10.20300 -10.20279 -10.20102 -10.19871
 Alpha  occ. eigenvalues --  -10.18395 -10.17883 -10.17881 -10.17827 -10.17096
 Alpha  occ. eigenvalues --  -10.16931 -10.16730  -7.96806  -7.95604  -5.99037
 Alpha  occ. eigenvalues --   -5.98517  -5.97791  -5.97779  -5.97305  -5.96601
 Alpha  occ. eigenvalues --   -1.23090  -1.22661  -1.20304  -1.19887  -1.15168
 Alpha  occ. eigenvalues --   -1.14744  -1.10582  -1.08981  -1.03645  -1.01319
 Alpha  occ. eigenvalues --   -0.99296  -0.98353  -0.96850  -0.96525  -0.96474
 Alpha  occ. eigenvalues --   -0.96179  -0.95398  -0.95017  -0.94498  -0.93960
 Alpha  occ. eigenvalues --   -0.93714  -0.92566  -0.87151  -0.85790  -0.83982
 Alpha  occ. eigenvalues --   -0.82641  -0.79487  -0.79373  -0.79103  -0.78833
 Alpha  occ. eigenvalues --   -0.78270  -0.77779  -0.74812  -0.74525  -0.74353
 Alpha  occ. eigenvalues --   -0.74112  -0.73711  -0.73200  -0.72189  -0.72093
 Alpha  occ. eigenvalues --   -0.71807  -0.71702  -0.70669  -0.69614  -0.67362
 Alpha  occ. eigenvalues --   -0.67121  -0.66690  -0.66584  -0.66441  -0.66193
 Alpha  occ. eigenvalues --   -0.65943  -0.65827  -0.65716  -0.65114  -0.64697
 Alpha  occ. eigenvalues --   -0.64487  -0.64387  -0.64176  -0.63877  -0.63742
 Alpha  occ. eigenvalues --   -0.63629  -0.63321  -0.62519  -0.62335  -0.62056
 Alpha  occ. eigenvalues --   -0.61962  -0.61364  -0.60430  -0.60339  -0.58444
 Alpha  occ. eigenvalues --   -0.57938  -0.56867  -0.56328  -0.54897  -0.54672
 Alpha  occ. eigenvalues --   -0.54483  -0.53867  -0.51740  -0.51417  -0.47239
 Alpha  occ. eigenvalues --   -0.46769  -0.45340  -0.44932
 Alpha virt. eigenvalues --   -0.18681  -0.17427  -0.14529  -0.13546  -0.10856
 Alpha virt. eigenvalues --   -0.10603  -0.10261  -0.09882  -0.09214  -0.08918
 Alpha virt. eigenvalues --   -0.08635  -0.07115  -0.06293  -0.05927  -0.05004

 Mulliken charges:
               1
     1  C   -0.123325
     2  C   -0.245495
     3  S    0.089489
     4  C    0.056256
     5  C   -0.075638
     6  C   -0.155208
     7  C    0.100284
     8  C   -0.130076
     9  H    0.176989
    10  C   -0.078438
    11  C   -0.048799
    12  C   -0.094176
    13  C    0.132635
    14  H    0.178361
    15  H    0.142706
    16  H    0.157606
    17  C   -0.108236
    18  H    0.187414
    19  H    0.127910
    20  H    0.131312
    21  H    0.156033
    22  S    0.011298
    23  C   -0.509131
    24  C    0.086931
    25  C    0.071582
    26  N    0.024050
    27  N    0.021040
    28  C   -0.257094
    29  H    0.180026
    30  H    0.151508
    31  H    0.173336
    32  C   -0.255691
    33  H    0.174352
    34  H    0.184751
    35  H    0.146289
    36  C   -0.261691
    37  H    0.179778
    38  H    0.158453
    39  H    0.175646
    40  C   -0.260428
    41  H    0.174786
    42  H    0.186690
    43  H    0.146630
    44  C   -0.469585
    45  C    0.086169
    46  C    0.078416
    47  N    0.020860
    48  N    0.019608
    49  C   -0.258201
    50  H    0.178560
    51  H    0.154907
    52  H    0.172997
    53  C   -0.258366
    54  H    0.173729
    55  H    0.184290
    56  H    0.146183
    57  C   -0.258552
    58  H    0.177542
    59  H    0.151944
    60  H    0.173589
    61  C   -0.260414
    62  H    0.172892
    63  H    0.184868
    64  H    0.147849
 Sum of Mulliken charges =   2.00000

 Dipole moment (field-independent basis, Debye):
    X=             -0.3794    Y=              3.2492    Z=             -0.5858  Tot=              3.3233
 Quadrupole moment (field-independent basis, Debye-Ang):
   XX=            270.0923   YY=           -143.0511   ZZ=           -187.0884
   XY=             -8.5166   XZ=              5.3425   YZ=             -1.2528

 Normal termination of Gaussian 16 at Wed Jan 27 16:28:47 2021.
