 Gaussian 16, Revision A.03,
 Gaussian 16:  EM64L-G16RevA.03 25-Dec-2016

 ----------------------------------------------------------------------
 #P LC-wHPBE/TZVP iop(3/107=0185300000, 3/108=0185300000) scf=(conver=6
 ,fermi,ndamp=35,noincfock,novaracc,vshift=500,xqc)
 ----------------------------------------------------------------------

 -------------
 H32 C26 S2 N4
 -------------
 Symbolic Z-matrix:
 Charge =  2 Multiplicity = 1

                         Standard orientation:
 ---------------------------------------------------------------------
 Center     Atomic      Atomic             Coordinates (Angstroms)
 Number     Number       Type             X           Y           Z
 ---------------------------------------------------------------------
      1          6           0        2.928949   -0.209586    0.466429
      2          6           0        1.563914   -0.061175    0.303790
      3         16           0        0.549634   -0.929940    1.465043
      4          6           0        1.080492    0.744795   -0.706590
      5          6           0       -1.720975   -1.178026   -0.124019
      6          6           0       -1.104728   -0.556786    0.961278
      7          6           0        3.804439    0.453059   -0.373760
      8          6           0        1.957571    1.398720   -1.546095
      9          1           0        0.017059    0.867388   -0.843825
     10          6           0       -3.055310   -0.905897   -0.375396
     11          6           0       -1.834379    0.303673    1.763498
     12          6           0       -3.157322    0.570140    1.506853
     13          6           0       -3.772824   -0.043708    0.429435
     14          1           0       -3.535939   -1.385849   -1.215765
     15          1           0       -1.346414    0.763075    2.610001
     16          1           0       -3.711030    1.227115    2.160412
     17          6           0        3.316329    1.262630   -1.386512
     18          1           0        3.309964   -0.825983    1.268943
     19          1           0        0.121390   -2.546838   -0.437504
     20          1           0        1.570409    2.020933   -2.339064
     21          1           0        3.993957    1.766527   -2.059405
     22         16           0       -0.923466   -2.279512   -1.229412
     23          6           0       -5.179371    0.186625    0.159910
     24          6           0       -6.258258    1.013194    0.194238
     25          6           0       -6.373984   -0.291545   -0.281001
     26          7           0       -6.778879    2.172200    0.466391
     27          7           0       -7.085837   -1.264246   -0.765069
     28          6           0       -5.943792    3.274283    0.907684
     29          1           0       -6.187951    3.545500    1.931936
     30          1           0       -4.898805    2.994168    0.846509
     31          1           0       -6.108951    4.134804    0.264794
     32          6           0       -8.194976    2.451187    0.318309
     33          1           0       -8.537142    3.011091    1.183702
     34          1           0       -8.380874    3.039067   -0.577705
     35          1           0       -8.758216    1.527533    0.273817
     36          6           0       -6.515968   -2.589608   -0.931428
     37          1           0       -6.460524   -2.846499   -1.986434
     38          1           0       -5.524243   -2.624805   -0.496396
     39          1           0       -7.140387   -3.318442   -0.421721
     40          6           0       -8.484929   -1.112006   -1.118438
     41          1           0       -8.667734   -1.621246   -2.059984
     42          1           0       -9.125917   -1.545202   -0.353886
     43          1           0       -8.728287   -0.065327   -1.252120
     44          6           0        5.234909    0.301436   -0.192555
     45          6           0        6.482207    0.837696   -0.274291
     46          6           0        6.296202   -0.469144    0.166373
     47          7           0        7.258316    1.842942   -0.551570
     48          7           0        6.771609   -1.601745    0.593499
     49          6           0        6.699705    3.135271   -0.904858
     50          1           0        6.943427    3.382636   -1.935256
     51          1           0        5.623434    3.119821   -0.780416
     52          1           0        7.111169    3.899344   -0.250646
     53          6           0        8.704916    1.757804   -0.486526
     54          1           0        9.127537    2.257490   -1.353238
     55          1           0        9.080352    2.238157    0.414316
     56          1           0        9.022841    0.722915   -0.509579
     57          6           0        5.902929   -2.750782    0.768792
     58          1           0        5.850729   -3.027562    1.819029
     59          1           0        4.908582   -2.521281    0.404440
     60          1           0        6.292204   -3.591280    0.200176
     61          6           0        8.181475   -1.806186    0.866823
     62          1           0        8.283723   -2.375263    1.786100
     63          1           0        8.657299   -2.356258    0.057912
     64          1           0        8.679880   -0.854950    1.006340
 ---------------------------------------------------------------------

 SCF Done:  E(RLC-wHPBE) =  -2023.75735247     A.U. after   16 cycles

 The electronic state is 1-A.
 Alpha  occ. eigenvalues --  -88.37310 -88.35957 -14.34332 -14.34275 -14.33891
 Alpha  occ. eigenvalues --  -14.33835 -10.26796 -10.26742 -10.26317 -10.26264
 Alpha  occ. eigenvalues --  -10.22964 -10.22521 -10.21382 -10.20629 -10.20368
 Alpha  occ. eigenvalues --  -10.20364 -10.20321 -10.20307 -10.20307 -10.20119
 Alpha  occ. eigenvalues --  -10.20047 -10.19998 -10.19976 -10.19799 -10.19560
 Alpha  occ. eigenvalues --  -10.18087 -10.17575 -10.17571 -10.17518 -10.16785
 Alpha  occ. eigenvalues --  -10.16623 -10.16422  -7.96509  -7.95312  -5.98746
 Alpha  occ. eigenvalues --   -5.98228  -5.97504  -5.97491  -5.97019  -5.96317
 Alpha  occ. eigenvalues --   -1.22761  -1.22331  -1.19986  -1.19569  -1.14850
 Alpha  occ. eigenvalues --   -1.14425  -1.10254  -1.08653  -1.03324  -1.01004
 Alpha  occ. eigenvalues --   -0.98980  -0.98038  -0.96544  -0.96222  -0.96167
 Alpha  occ. eigenvalues --   -0.95875  -0.95099  -0.94717  -0.94201  -0.93664
 Alpha  occ. eigenvalues --   -0.93415  -0.92267  -0.86858  -0.85502  -0.83697
 Alpha  occ. eigenvalues --   -0.82356  -0.79218  -0.79106  -0.78837  -0.78568
 Alpha  occ. eigenvalues --   -0.78004  -0.77512  -0.74551  -0.74248  -0.74096
 Alpha  occ. eigenvalues --   -0.73833  -0.73459  -0.72950  -0.71934  -0.71834
 Alpha  occ. eigenvalues --   -0.71547  -0.71444  -0.70417  -0.69369  -0.67114
 Alpha  occ. eigenvalues --   -0.66873  -0.66438  -0.66338  -0.66206  -0.65953
 Alpha  occ. eigenvalues --   -0.65707  -0.65584  -0.65475  -0.64872  -0.64461
 Alpha  occ. eigenvalues --   -0.64252  -0.64151  -0.63940  -0.63641  -0.63503
 Alpha  occ. eigenvalues --   -0.63400  -0.63091  -0.62286  -0.62107  -0.61822
 Alpha  occ. eigenvalues --   -0.61730  -0.61136  -0.60208  -0.60117  -0.58228
 Alpha  occ. eigenvalues --   -0.57725  -0.56662  -0.56123  -0.54683  -0.54465
 Alpha  occ. eigenvalues --   -0.54269  -0.53666  -0.51558  -0.51230  -0.47078
 Alpha  occ. eigenvalues --   -0.46607  -0.45177  -0.44771
 Alpha virt. eigenvalues --   -0.18799  -0.17549  -0.14664  -0.13682  -0.11010
 Alpha virt. eigenvalues --   -0.10760  -0.10414  -0.10029  -0.09353  -0.09075
 Alpha virt. eigenvalues --   -0.08795  -0.07274  -0.06427  -0.06062  -0.05152

 Mulliken charges:
               1
     1  C   -0.122785
     2  C   -0.245889
     3  S    0.088616
     4  C    0.057301
     5  C   -0.075854
     6  C   -0.153080
     7  C    0.100321
     8  C   -0.129943
     9  H    0.176485
    10  C   -0.078169
    11  C   -0.048682
    12  C   -0.093677
    13  C    0.132989
    14  H    0.177663
    15  H    0.142069
    16  H    0.157013
    17  C   -0.107632
    18  H    0.186793
    19  H    0.127789
    20  H    0.130803
    21  H    0.155442
    22  S    0.011147
    23  C   -0.509756
    24  C    0.087141
    25  C    0.071734
    26  N    0.024470
    27  N    0.021461
    28  C   -0.257828
    29  H    0.180159
    30  H    0.151791
    31  H    0.173519
    32  C   -0.256431
    33  H    0.174528
    34  H    0.184876
    35  H    0.146584
    36  C   -0.262443
    37  H    0.179903
    38  H    0.158754
    39  H    0.175832
    40  C   -0.261158
    41  H    0.174959
    42  H    0.186815
    43  H    0.146918
    44  C   -0.469991
    45  C    0.086351
    46  C    0.078570
    47  N    0.021281
    48  N    0.020035
    49  C   -0.258935
    50  H    0.178688
    51  H    0.155191
    52  H    0.173177
    53  C   -0.259108
    54  H    0.173903
    55  H    0.184412
    56  H    0.146476
    57  C   -0.259315
    58  H    0.177667
    59  H    0.152238
    60  H    0.173771
    61  C   -0.261151
    62  H    0.173064
    63  H    0.184990
    64  H    0.148138
 Sum of Mulliken charges =   2.00000

 Dipole moment (field-independent basis, Debye):
    X=             -0.3816    Y=              3.2420    Z=             -0.5865  Tot=              3.3167
 Quadrupole moment (field-independent basis, Debye-Ang):
   XX=            270.0680   YY=           -143.0428   ZZ=           -187.1051
   XY=             -8.5138   XZ=              5.3562   YZ=             -1.2460

 Normal termination of Gaussian 16 at Wed Jan 27 11:50:53 2021.
