 Gaussian 16, Revision A.03,
 Gaussian 16:  EM64L-G16RevA.03 25-Dec-2016

 ----------------------------------------------------------------------
 #P LC-wHPBE/TZVP iop(3/107=0199500000, 3/108=0199500000) scf=(conver=6
 ,fermi,ndamp=35,noincfock,novaracc,vshift=500,xqc)
 ----------------------------------------------------------------------

 -------------
 H32 C26 S2 N4
 -------------
 Symbolic Z-matrix:
 Charge =  2 Multiplicity = 1

                         Standard orientation:
 ---------------------------------------------------------------------
 Center     Atomic      Atomic             Coordinates (Angstroms)
 Number     Number       Type             X           Y           Z
 ---------------------------------------------------------------------
      1          6           0        2.928949   -0.209586    0.466429
      2          6           0        1.563914   -0.061175    0.303790
      3         16           0        0.549634   -0.929940    1.465043
      4          6           0        1.080492    0.744795   -0.706590
      5          6           0       -1.720975   -1.178026   -0.124019
      6          6           0       -1.104728   -0.556786    0.961278
      7          6           0        3.804439    0.453059   -0.373760
      8          6           0        1.957571    1.398720   -1.546095
      9          1           0        0.017059    0.867388   -0.843825
     10          6           0       -3.055310   -0.905897   -0.375396
     11          6           0       -1.834379    0.303673    1.763498
     12          6           0       -3.157322    0.570140    1.506853
     13          6           0       -3.772824   -0.043708    0.429435
     14          1           0       -3.535939   -1.385849   -1.215765
     15          1           0       -1.346414    0.763075    2.610001
     16          1           0       -3.711030    1.227115    2.160412
     17          6           0        3.316329    1.262630   -1.386512
     18          1           0        3.309964   -0.825983    1.268943
     19          1           0        0.121390   -2.546838   -0.437504
     20          1           0        1.570409    2.020933   -2.339064
     21          1           0        3.993957    1.766527   -2.059405
     22         16           0       -0.923466   -2.279512   -1.229412
     23          6           0       -5.179371    0.186625    0.159910
     24          6           0       -6.258258    1.013194    0.194238
     25          6           0       -6.373984   -0.291545   -0.281001
     26          7           0       -6.778879    2.172200    0.466391
     27          7           0       -7.085837   -1.264246   -0.765069
     28          6           0       -5.943792    3.274283    0.907684
     29          1           0       -6.187951    3.545500    1.931936
     30          1           0       -4.898805    2.994168    0.846509
     31          1           0       -6.108951    4.134804    0.264794
     32          6           0       -8.194976    2.451187    0.318309
     33          1           0       -8.537142    3.011091    1.183702
     34          1           0       -8.380874    3.039067   -0.577705
     35          1           0       -8.758216    1.527533    0.273817
     36          6           0       -6.515968   -2.589608   -0.931428
     37          1           0       -6.460524   -2.846499   -1.986434
     38          1           0       -5.524243   -2.624805   -0.496396
     39          1           0       -7.140387   -3.318442   -0.421721
     40          6           0       -8.484929   -1.112006   -1.118438
     41          1           0       -8.667734   -1.621246   -2.059984
     42          1           0       -9.125917   -1.545202   -0.353886
     43          1           0       -8.728287   -0.065327   -1.252120
     44          6           0        5.234909    0.301436   -0.192555
     45          6           0        6.482207    0.837696   -0.274291
     46          6           0        6.296202   -0.469144    0.166373
     47          7           0        7.258316    1.842942   -0.551570
     48          7           0        6.771609   -1.601745    0.593499
     49          6           0        6.699705    3.135271   -0.904858
     50          1           0        6.943427    3.382636   -1.935256
     51          1           0        5.623434    3.119821   -0.780416
     52          1           0        7.111169    3.899344   -0.250646
     53          6           0        8.704916    1.757804   -0.486526
     54          1           0        9.127537    2.257490   -1.353238
     55          1           0        9.080352    2.238157    0.414316
     56          1           0        9.022841    0.722915   -0.509579
     57          6           0        5.902929   -2.750782    0.768792
     58          1           0        5.850729   -3.027562    1.819029
     59          1           0        4.908582   -2.521281    0.404440
     60          1           0        6.292204   -3.591280    0.200176
     61          6           0        8.181475   -1.806186    0.866823
     62          1           0        8.283723   -2.375263    1.786100
     63          1           0        8.657299   -2.356258    0.057912
     64          1           0        8.679880   -0.854950    1.006340
 ---------------------------------------------------------------------

 SCF Done:  E(RLC-wHPBE) =  -2023.78642674     A.U. after   16 cycles

 The electronic state is 1-A.
 Alpha  occ. eigenvalues --  -88.38074 -88.36711 -14.35109 -14.35051 -14.34669
 Alpha  occ. eigenvalues --  -14.34614 -10.27671 -10.27617 -10.27193 -10.27141
 Alpha  occ. eigenvalues --  -10.23803 -10.23364 -10.22200 -10.21444 -10.21192
 Alpha  occ. eigenvalues --  -10.21159 -10.21141 -10.21103 -10.21101 -10.20912
 Alpha  occ. eigenvalues --  -10.20842 -10.20793 -10.20772 -10.20596 -10.20380
 Alpha  occ. eigenvalues --  -10.18897 -10.18386 -10.18385 -10.18332 -10.17604
 Alpha  occ. eigenvalues --  -10.17434 -10.17231  -7.97289  -7.96081  -5.99512
 Alpha  occ. eigenvalues --   -5.98989  -5.98258  -5.98248  -5.97770  -5.97064
 Alpha  occ. eigenvalues --   -1.23626  -1.23198  -1.20820  -1.20405  -1.15687
 Alpha  occ. eigenvalues --   -1.15263  -1.11117  -1.09516  -1.04168  -1.01831
 Alpha  occ. eigenvalues --   -0.99808  -0.98865  -0.97346  -0.97017  -0.96970
 Alpha  occ. eigenvalues --   -0.96672  -0.95881  -0.95501  -0.94978  -0.94438
 Alpha  occ. eigenvalues --   -0.94199  -0.93050  -0.87624  -0.86254  -0.84442
 Alpha  occ. eigenvalues --   -0.83100  -0.79919  -0.79802  -0.79532  -0.79260
 Alpha  occ. eigenvalues --   -0.78699  -0.78210  -0.75231  -0.74971  -0.74767
 Alpha  occ. eigenvalues --   -0.74561  -0.74115  -0.73602  -0.72601  -0.72508
 Alpha  occ. eigenvalues --   -0.72226  -0.72116  -0.71072  -0.70009  -0.67760
 Alpha  occ. eigenvalues --   -0.67518  -0.67094  -0.66979  -0.66818  -0.66578
 Alpha  occ. eigenvalues --   -0.66321  -0.66215  -0.66102  -0.65502  -0.65075
 Alpha  occ. eigenvalues --   -0.64864  -0.64766  -0.64555  -0.64257  -0.64123
 Alpha  occ. eigenvalues --   -0.63996  -0.63688  -0.62891  -0.62698  -0.62432
 Alpha  occ. eigenvalues --   -0.62330  -0.61728  -0.60785  -0.60695  -0.58788
 Alpha  occ. eigenvalues --   -0.58277  -0.57193  -0.56654  -0.55237  -0.55000
 Alpha  occ. eigenvalues --   -0.54824  -0.54186  -0.52028  -0.51712  -0.47492
 Alpha  occ. eigenvalues --   -0.47025  -0.45597  -0.45185
 Alpha virt. eigenvalues --   -0.18497  -0.17237  -0.14321  -0.13334  -0.10614
 Alpha virt. eigenvalues --   -0.10358  -0.10021  -0.09653  -0.08997  -0.08673
 Alpha virt. eigenvalues --   -0.08385  -0.06866  -0.06083  -0.05716  -0.04773

 Mulliken charges:
               1
     1  C   -0.124190
     2  C   -0.244940
     3  S    0.090920
     4  C    0.054483
     5  C   -0.075369
     6  C   -0.158739
     7  C    0.100274
     8  C   -0.130306
     9  H    0.177870
    10  C   -0.078879
    11  C   -0.048968
    12  C   -0.095071
    13  C    0.132133
    14  H    0.179556
    15  H    0.143810
    16  H    0.158641
    17  C   -0.109306
    18  H    0.188488
    19  H    0.128104
    20  H    0.132212
    21  H    0.157067
    22  S    0.011558
    23  C   -0.507942
    24  C    0.086597
    25  C    0.071347
    26  N    0.023249
    27  N    0.020237
    28  C   -0.255985
    29  H    0.179843
    30  H    0.151068
    31  H    0.173065
    32  C   -0.254562
    33  H    0.174089
    34  H    0.184580
    35  H    0.145825
    36  C   -0.260557
    37  H    0.179607
    38  H    0.157985
    39  H    0.175370
    40  C   -0.259316
    41  H    0.174529
    42  H    0.186520
    43  H    0.146177
    44  C   -0.468762
    45  C    0.085881
    46  C    0.078171
    47  N    0.020058
    48  N    0.018796
    49  C   -0.257095
    50  H    0.178384
    51  H    0.154468
    52  H    0.172729
    53  C   -0.257238
    54  H    0.173469
    55  H    0.184124
    56  H    0.145723
    57  C   -0.257398
    58  H    0.177370
    59  H    0.151485
    60  H    0.173318
    61  C   -0.259293
    62  H    0.172637
    63  H    0.184703
    64  H    0.147393
 Sum of Mulliken charges =   2.00000

 Dipole moment (field-independent basis, Debye):
    X=             -0.3760    Y=              3.2607    Z=             -0.5848  Tot=              3.3340
 Quadrupole moment (field-independent basis, Debye-Ang):
   XX=            270.1335   YY=           -143.0638   ZZ=           -187.0607
   XY=             -8.5213   XZ=              5.3206   YZ=             -1.2640

 Normal termination of Gaussian 16 at Wed Jan 27 05:40:54 2021.
