 Gaussian 16, Revision A.03,
 Gaussian 16:  EM64L-G16RevA.03 25-Dec-2016

 ----------------------------------------------------------------------
 #P LC-wHPBE/TZVP iop(3/107=0199500000, 3/108=0199500000) scf=(conver=6
 ,fermi,ndamp=35,noincfock,novaracc,vshift=500,xqc)
 ----------------------------------------------------------------------

 -------------
 H32 C26 S2 N4
 -------------
 Symbolic Z-matrix:
 Charge =  3 Multiplicity = 2

                         Standard orientation:
 ---------------------------------------------------------------------
 Center     Atomic      Atomic             Coordinates (Angstroms)
 Number     Number       Type             X           Y           Z
 ---------------------------------------------------------------------
      1          6           0        2.928949   -0.209586    0.466429
      2          6           0        1.563914   -0.061175    0.303790
      3         16           0        0.549634   -0.929940    1.465043
      4          6           0        1.080492    0.744795   -0.706590
      5          6           0       -1.720975   -1.178026   -0.124019
      6          6           0       -1.104728   -0.556786    0.961278
      7          6           0        3.804439    0.453059   -0.373760
      8          6           0        1.957571    1.398720   -1.546095
      9          1           0        0.017059    0.867388   -0.843825
     10          6           0       -3.055310   -0.905897   -0.375396
     11          6           0       -1.834379    0.303673    1.763498
     12          6           0       -3.157322    0.570140    1.506853
     13          6           0       -3.772824   -0.043708    0.429435
     14          1           0       -3.535939   -1.385849   -1.215765
     15          1           0       -1.346414    0.763075    2.610001
     16          1           0       -3.711030    1.227115    2.160412
     17          6           0        3.316329    1.262630   -1.386512
     18          1           0        3.309964   -0.825983    1.268943
     19          1           0        0.121390   -2.546838   -0.437504
     20          1           0        1.570409    2.020933   -2.339064
     21          1           0        3.993957    1.766527   -2.059405
     22         16           0       -0.923466   -2.279512   -1.229412
     23          6           0       -5.179371    0.186625    0.159910
     24          6           0       -6.258258    1.013194    0.194238
     25          6           0       -6.373984   -0.291545   -0.281001
     26          7           0       -6.778879    2.172200    0.466391
     27          7           0       -7.085837   -1.264246   -0.765069
     28          6           0       -5.943792    3.274283    0.907684
     29          1           0       -6.187951    3.545500    1.931936
     30          1           0       -4.898805    2.994168    0.846509
     31          1           0       -6.108951    4.134804    0.264794
     32          6           0       -8.194976    2.451187    0.318309
     33          1           0       -8.537142    3.011091    1.183702
     34          1           0       -8.380874    3.039067   -0.577705
     35          1           0       -8.758216    1.527533    0.273817
     36          6           0       -6.515968   -2.589608   -0.931428
     37          1           0       -6.460524   -2.846499   -1.986434
     38          1           0       -5.524243   -2.624805   -0.496396
     39          1           0       -7.140387   -3.318442   -0.421721
     40          6           0       -8.484929   -1.112006   -1.118438
     41          1           0       -8.667734   -1.621246   -2.059984
     42          1           0       -9.125917   -1.545202   -0.353886
     43          1           0       -8.728287   -0.065327   -1.252120
     44          6           0        5.234909    0.301436   -0.192555
     45          6           0        6.482207    0.837696   -0.274291
     46          6           0        6.296202   -0.469144    0.166373
     47          7           0        7.258316    1.842942   -0.551570
     48          7           0        6.771609   -1.601745    0.593499
     49          6           0        6.699705    3.135271   -0.904858
     50          1           0        6.943427    3.382636   -1.935256
     51          1           0        5.623434    3.119821   -0.780416
     52          1           0        7.111169    3.899344   -0.250646
     53          6           0        8.704916    1.757804   -0.486526
     54          1           0        9.127537    2.257490   -1.353238
     55          1           0        9.080352    2.238157    0.414316
     56          1           0        9.022841    0.722915   -0.509579
     57          6           0        5.902929   -2.750782    0.768792
     58          1           0        5.850729   -3.027562    1.819029
     59          1           0        4.908582   -2.521281    0.404440
     60          1           0        6.292204   -3.591280    0.200176
     61          6           0        8.181475   -1.806186    0.866823
     62          1           0        8.283723   -2.375263    1.786100
     63          1           0        8.657299   -2.356258    0.057912
     64          1           0        8.679880   -0.854950    1.006340
 ---------------------------------------------------------------------

 SCF Done:  E(ULC-wHPBE) =  -2023.33612830     A.U. after   33 cycles
 SCF Done:  E(ULC-wHPBE) =  -2023.33614653     a.u. after    2 cycles

 The electronic state is 2-A.
 Alpha  occ. eigenvalues --  -88.57507 -88.51897 -14.44119 -14.44117 -14.43811
 Alpha  occ. eigenvalues --  -14.43594 -10.36948 -10.36895 -10.36620 -10.36527
 Alpha  occ. eigenvalues --  -10.36298 -10.36025 -10.35990 -10.33677 -10.33162
 Alpha  occ. eigenvalues --  -10.33160 -10.32895 -10.32177 -10.31684 -10.31576
 Alpha  occ. eigenvalues --  -10.31531 -10.31385 -10.31217 -10.30357 -10.29440
 Alpha  occ. eigenvalues --  -10.29297 -10.29234 -10.28807 -10.28636 -10.28626
 Alpha  occ. eigenvalues --  -10.28497 -10.28266  -8.16407  -8.11133  -6.18419
 Alpha  occ. eigenvalues --   -6.18035  -6.17852  -6.13264  -6.12781  -6.12278
 Alpha  occ. eigenvalues --   -1.32610  -1.32273  -1.29514  -1.29162  -1.25585
 Alpha  occ. eigenvalues --   -1.24816  -1.24436  -1.23055  -1.18569  -1.15793
 Alpha  occ. eigenvalues --   -1.13001  -1.12117  -1.08544  -1.07211  -1.05467
 Alpha  occ. eigenvalues --   -1.05385  -1.05019  -1.04732  -1.04346  -1.04080
 Alpha  occ. eigenvalues --   -1.03152  -1.02918  -1.00598  -0.99104  -0.97629
 Alpha  occ. eigenvalues --   -0.96300  -0.91657  -0.91183  -0.88206  -0.88036
 Alpha  occ. eigenvalues --   -0.87755  -0.87689  -0.86233  -0.85966  -0.85347
 Alpha  occ. eigenvalues --   -0.84295  -0.83595  -0.83287  -0.83048  -0.82387
 Alpha  occ. eigenvalues --   -0.82082  -0.81577  -0.80806  -0.80628  -0.80425
 Alpha  occ. eigenvalues --   -0.80050  -0.79601  -0.79013  -0.78328  -0.77245
 Alpha  occ. eigenvalues --   -0.76062  -0.75257  -0.75115  -0.74993  -0.74329
 Alpha  occ. eigenvalues --   -0.74212  -0.74011  -0.73646  -0.73406  -0.72827
 Alpha  occ. eigenvalues --   -0.72791  -0.72622  -0.72501  -0.72421  -0.72200
 Alpha  occ. eigenvalues --   -0.72116  -0.71919  -0.71228  -0.70851  -0.70249
 Alpha  occ. eigenvalues --   -0.70058  -0.69707  -0.69568  -0.69218  -0.68062
 Alpha  occ. eigenvalues --   -0.64890  -0.64390  -0.63668  -0.63325  -0.62093
 Alpha  occ. eigenvalues --   -0.59830  -0.56811  -0.56460
 Alpha virt. eigenvalues --   -0.30716  -0.29272  -0.27475  -0.26714  -0.23641
 Alpha virt. eigenvalues --   -0.21974  -0.20465  -0.19777  -0.19327  -0.19106
 Alpha virt. eigenvalues --   -0.18222  -0.17676  -0.17541  -0.16447  -0.15080

  Beta  occ. eigenvalues --  -88.57295 -88.51825 -14.44091 -14.44086 -14.43804
  Beta  occ. eigenvalues --  -14.43589 -10.36948 -10.36897 -10.36626 -10.36532
  Beta  occ. eigenvalues --  -10.36230 -10.35984 -10.35915 -10.33657 -10.33216
  Beta  occ. eigenvalues --  -10.33161 -10.32884 -10.32073 -10.31596 -10.31561
  Beta  occ. eigenvalues --  -10.31388 -10.31312 -10.31122 -10.30411 -10.29440
  Beta  occ. eigenvalues --  -10.29297 -10.29235 -10.28807 -10.28637 -10.28627
  Beta  occ. eigenvalues --  -10.28497 -10.28266  -8.16190  -8.11061  -6.18281
  Beta  occ. eigenvalues --   -6.17760  -6.17409  -6.13212  -6.12727  -6.12095
  Beta  occ. eigenvalues --   -1.32579  -1.32270  -1.29473  -1.29154  -1.25336
  Beta  occ. eigenvalues --   -1.24743  -1.24340  -1.22863  -1.18103  -1.15536
  Beta  occ. eigenvalues --   -1.12816  -1.11997  -1.08056  -1.06815  -1.05431
  Beta  occ. eigenvalues --   -1.05375  -1.05010  -1.04728  -1.04340  -1.04079
  Beta  occ. eigenvalues --   -1.03123  -1.02899  -1.00409  -0.98959  -0.97453
  Beta  occ. eigenvalues --   -0.96065  -0.91503  -0.91092  -0.88165  -0.88008
  Beta  occ. eigenvalues --   -0.87718  -0.87670  -0.86070  -0.85798  -0.85205
  Beta  occ. eigenvalues --   -0.84215  -0.83543  -0.83266  -0.82985  -0.82328
  Beta  occ. eigenvalues --   -0.82045  -0.81544  -0.80711  -0.80507  -0.80395
  Beta  occ. eigenvalues --   -0.79883  -0.79530  -0.78805  -0.77785  -0.76982
  Beta  occ. eigenvalues --   -0.75891  -0.75217  -0.74933  -0.74848  -0.74312
  Beta  occ. eigenvalues --   -0.74183  -0.73846  -0.73501  -0.73250  -0.72778
  Beta  occ. eigenvalues --   -0.72745  -0.72606  -0.72432  -0.72327  -0.72170
  Beta  occ. eigenvalues --   -0.72110  -0.71896  -0.71020  -0.70723  -0.70209
  Beta  occ. eigenvalues --   -0.70030  -0.69653  -0.69304  -0.67611  -0.67028
  Beta  occ. eigenvalues --   -0.64504  -0.64087  -0.63552  -0.63296  -0.58400
  Beta  occ. eigenvalues --   -0.56671  -0.56001
  Beta virt. eigenvalues --   -0.44793  -0.30317  -0.28637  -0.26794  -0.25998
  Beta virt. eigenvalues --   -0.23268  -0.21691  -0.20217  -0.19581  -0.19245
  Beta virt. eigenvalues --   -0.19091  -0.18047  -0.17618  -0.17383  -0.16048

 Mulliken charges and spin densities:
               1          2
     1  C   -0.087696   0.079213
     2  C   -0.290764   0.017522
     3  S    0.341919   0.420890
     4  C    0.080945   0.097319
     5  C   -0.107593   0.029668
     6  C   -0.170528   0.057618
     7  C    0.075085  -0.062439
     8  C   -0.115491  -0.053899
     9  H    0.202540  -0.005120
    10  C   -0.039992   0.000427
    11  C   -0.021374  -0.030282
    12  C   -0.067312   0.076107
    13  C    0.120769   0.007350
    14  H    0.211897   0.000546
    15  H    0.170995   0.000532
    16  H    0.192558  -0.002358
    17  C   -0.049361   0.185688
    18  H    0.226351  -0.001807
    19  H    0.130377  -0.002161
    20  H    0.169022   0.001933
    21  H    0.195544  -0.007607
    22  S    0.164047   0.158460
    23  C   -0.528139  -0.005702
    24  C    0.095860  -0.000003
    25  C    0.080916  -0.000923
    26  N    0.039488   0.014239
    27  N    0.036106   0.015579
    28  C   -0.254561  -0.000466
    29  H    0.196978   0.000898
    30  H    0.133629  -0.000111
    31  H    0.190731   0.000667
    32  C   -0.256816  -0.000607
    33  H    0.188236   0.000628
    34  H    0.200211   0.000837
    35  H    0.151933   0.000077
    36  C   -0.260585  -0.000722
    37  H    0.194504   0.000937
    38  H    0.140389  -0.000059
    39  H    0.194412   0.000937
    40  C   -0.261491  -0.000602
    41  H    0.187675   0.000656
    42  H    0.203043   0.000894
    43  H    0.152510   0.000061
    44  C   -0.485068   0.006005
    45  C    0.093728  -0.004123
    46  C    0.084396  -0.004528
    47  N    0.035577   0.002568
    48  N    0.032449   0.003951
    49  C   -0.255961   0.000333
    50  H    0.196078   0.000248
    51  H    0.136465  -0.000141
    52  H    0.191406  -0.000050
    53  C   -0.259686  -0.000151
    54  H    0.187700   0.000090
    55  H    0.200012   0.000240
    56  H    0.151116   0.000049
    57  C   -0.256321  -0.000120
    58  H    0.191772   0.000199
    59  H    0.127889  -0.000070
    60  H    0.192526   0.000375
    61  C   -0.261624  -0.000154
    62  H    0.185087   0.000185
    63  H    0.200990   0.000264
    64  H    0.154505   0.000012
 Sum of Mulliken charges =   3.00000   1.00000

 Dipole moment (field-independent basis, Debye):
    X=              0.1258    Y=              2.1068    Z=             -0.1929  Tot=              2.1194
 Quadrupole moment (field-independent basis, Debye-Ang):
   XX=            368.8904   YY=           -121.9084   ZZ=           -172.8831
   XY=             -6.2114   XZ=              3.7723   YZ=             -1.6913

 Normal termination of Gaussian 16 at Wed Jan 27 06:53:13 2021.
