 Gaussian 16, Revision A.03,
 Gaussian 16:  EM64L-G16RevA.03 25-Dec-2016

 ----------------------------------------------------------------------
 #P LC-wHPBE/TZVP iop(3/107=0185300000, 3/108=0185300000) scf=(conver=6
 ,fermi,ndamp=35,noincfock,novaracc,vshift=500,xqc)
 ----------------------------------------------------------------------

 -------------
 H32 C26 S2 N4
 -------------
 Symbolic Z-matrix:
 Charge =  3 Multiplicity = 2

                         Standard orientation:
 ---------------------------------------------------------------------
 Center     Atomic      Atomic             Coordinates (Angstroms)
 Number     Number       Type             X           Y           Z
 ---------------------------------------------------------------------
      1          6           0        2.928949   -0.209586    0.466429
      2          6           0        1.563914   -0.061175    0.303790
      3         16           0        0.549634   -0.929940    1.465043
      4          6           0        1.080492    0.744795   -0.706590
      5          6           0       -1.720975   -1.178026   -0.124019
      6          6           0       -1.104728   -0.556786    0.961278
      7          6           0        3.804439    0.453059   -0.373760
      8          6           0        1.957571    1.398720   -1.546095
      9          1           0        0.017059    0.867388   -0.843825
     10          6           0       -3.055310   -0.905897   -0.375396
     11          6           0       -1.834379    0.303673    1.763498
     12          6           0       -3.157322    0.570140    1.506853
     13          6           0       -3.772824   -0.043708    0.429435
     14          1           0       -3.535939   -1.385849   -1.215765
     15          1           0       -1.346414    0.763075    2.610001
     16          1           0       -3.711030    1.227115    2.160412
     17          6           0        3.316329    1.262630   -1.386512
     18          1           0        3.309964   -0.825983    1.268943
     19          1           0        0.121390   -2.546838   -0.437504
     20          1           0        1.570409    2.020933   -2.339064
     21          1           0        3.993957    1.766527   -2.059405
     22         16           0       -0.923466   -2.279512   -1.229412
     23          6           0       -5.179371    0.186625    0.159910
     24          6           0       -6.258258    1.013194    0.194238
     25          6           0       -6.373984   -0.291545   -0.281001
     26          7           0       -6.778879    2.172200    0.466391
     27          7           0       -7.085837   -1.264246   -0.765069
     28          6           0       -5.943792    3.274283    0.907684
     29          1           0       -6.187951    3.545500    1.931936
     30          1           0       -4.898805    2.994168    0.846509
     31          1           0       -6.108951    4.134804    0.264794
     32          6           0       -8.194976    2.451187    0.318309
     33          1           0       -8.537142    3.011091    1.183702
     34          1           0       -8.380874    3.039067   -0.577705
     35          1           0       -8.758216    1.527533    0.273817
     36          6           0       -6.515968   -2.589608   -0.931428
     37          1           0       -6.460524   -2.846499   -1.986434
     38          1           0       -5.524243   -2.624805   -0.496396
     39          1           0       -7.140387   -3.318442   -0.421721
     40          6           0       -8.484929   -1.112006   -1.118438
     41          1           0       -8.667734   -1.621246   -2.059984
     42          1           0       -9.125917   -1.545202   -0.353886
     43          1           0       -8.728287   -0.065327   -1.252120
     44          6           0        5.234909    0.301436   -0.192555
     45          6           0        6.482207    0.837696   -0.274291
     46          6           0        6.296202   -0.469144    0.166373
     47          7           0        7.258316    1.842942   -0.551570
     48          7           0        6.771609   -1.601745    0.593499
     49          6           0        6.699705    3.135271   -0.904858
     50          1           0        6.943427    3.382636   -1.935256
     51          1           0        5.623434    3.119821   -0.780416
     52          1           0        7.111169    3.899344   -0.250646
     53          6           0        8.704916    1.757804   -0.486526
     54          1           0        9.127537    2.257490   -1.353238
     55          1           0        9.080352    2.238157    0.414316
     56          1           0        9.022841    0.722915   -0.509579
     57          6           0        5.902929   -2.750782    0.768792
     58          1           0        5.850729   -3.027562    1.819029
     59          1           0        4.908582   -2.521281    0.404440
     60          1           0        6.292204   -3.591280    0.200176
     61          6           0        8.181475   -1.806186    0.866823
     62          1           0        8.283723   -2.375263    1.786100
     63          1           0        8.657299   -2.356258    0.057912
     64          1           0        8.679880   -0.854950    1.006340
 ---------------------------------------------------------------------

 SCF Done:  E(ULC-wHPBE) =  -2023.30878731     A.U. after   33 cycles
 SCF Done:  E(ULC-wHPBE) =  -2023.30880758     a.u. after    2 cycles

 The electronic state is 2-A.
 Alpha  occ. eigenvalues --  -88.56260 -88.51326 -14.43477 -14.43473 -14.42991
 Alpha  occ. eigenvalues --  -14.42772 -10.36186 -10.36133 -10.35680 -10.35587
 Alpha  occ. eigenvalues --  -10.35537 -10.35180 -10.34950 -10.32923 -10.32450
 Alpha  occ. eigenvalues --  -10.32169 -10.31994 -10.31108 -10.30771 -10.30658
 Alpha  occ. eigenvalues --  -10.30657 -10.30534 -10.30485 -10.29377 -10.28591
 Alpha  occ. eigenvalues --  -10.28590 -10.28539 -10.27957 -10.27937 -10.27931
 Alpha  occ. eigenvalues --  -10.27666 -10.27434  -8.15165  -8.10543  -6.17207
 Alpha  occ. eigenvalues --   -6.16786  -6.16631  -6.12682  -6.12201  -6.11730
 Alpha  occ. eigenvalues --   -1.31862  -1.31350  -1.28800  -1.28281  -1.24694
 Alpha  occ. eigenvalues --   -1.23977  -1.23584  -1.22083  -1.17576  -1.15038
 Alpha  occ. eigenvalues --   -1.12096  -1.11107  -1.07644  -1.06479  -1.04760
 Alpha  occ. eigenvalues --   -1.04532  -1.04327  -1.03891  -1.03671  -1.03247
 Alpha  occ. eigenvalues --   -1.02483  -1.02092  -0.99720  -0.98281  -0.96902
 Alpha  occ. eigenvalues --   -0.95409  -0.90876  -0.90482  -0.87596  -0.87281
 Alpha  occ. eigenvalues --   -0.87152  -0.86926  -0.85586  -0.85173  -0.84574
 Alpha  occ. eigenvalues --   -0.83548  -0.82978  -0.82571  -0.82329  -0.81679
 Alpha  occ. eigenvalues --   -0.81528  -0.80869  -0.80195  -0.79992  -0.79702
 Alpha  occ. eigenvalues --   -0.79443  -0.78955  -0.78270  -0.77476  -0.76604
 Alpha  occ. eigenvalues --   -0.75484  -0.74575  -0.74523  -0.74350  -0.73792
 Alpha  occ. eigenvalues --   -0.73557  -0.73443  -0.72916  -0.72745  -0.72302
 Alpha  occ. eigenvalues --   -0.72133  -0.72101  -0.71948  -0.71806  -0.71615
 Alpha  occ. eigenvalues --   -0.71543  -0.71272  -0.70531  -0.70386  -0.69761
 Alpha  occ. eigenvalues --   -0.69419  -0.69208  -0.68837  -0.68534  -0.67621
 Alpha  occ. eigenvalues --   -0.64426  -0.63757  -0.63230  -0.62730  -0.61341
 Alpha  occ. eigenvalues --   -0.59547  -0.56513  -0.55980
 Alpha virt. eigenvalues --   -0.31050  -0.29423  -0.27747  -0.27003  -0.23984
 Alpha virt. eigenvalues --   -0.22365  -0.20889  -0.20096  -0.19831  -0.19447
 Alpha virt. eigenvalues --   -0.18598  -0.17988  -0.17946  -0.16845  -0.15410

  Beta  occ. eigenvalues --  -88.56061 -88.51248 -14.43442 -14.43440 -14.42981
  Beta  occ. eigenvalues --  -14.42764 -10.36187 -10.36136 -10.35686 -10.35591
  Beta  occ. eigenvalues --  -10.35469 -10.35097 -10.34908 -10.32906 -10.32450
  Beta  occ. eigenvalues --  -10.32217 -10.31984 -10.31015 -10.30795 -10.30658
  Beta  occ. eigenvalues --  -10.30541 -10.30428 -10.30278 -10.29425 -10.28591
  Beta  occ. eigenvalues --  -10.28590 -10.28540 -10.27957 -10.27937 -10.27932
  Beta  occ. eigenvalues --  -10.27666 -10.27434  -8.14963  -8.10464  -6.17078
  Beta  occ. eigenvalues --   -6.16560  -6.16184  -6.12625  -6.12143  -6.11529
  Beta  occ. eigenvalues --   -1.31827  -1.31344  -1.28753  -1.28269  -1.24489
  Beta  occ. eigenvalues --   -1.23872  -1.23494  -1.21888  -1.17142  -1.14765
  Beta  occ. eigenvalues --   -1.11920  -1.10994  -1.07204  -1.06065  -1.04720
  Beta  occ. eigenvalues --   -1.04523  -1.04317  -1.03886  -1.03663  -1.03245
  Beta  occ. eigenvalues --   -1.02453  -1.02075  -0.99532  -0.98138  -0.96729
  Beta  occ. eigenvalues --   -0.95186  -0.90745  -0.90377  -0.87555  -0.87257
  Beta  occ. eigenvalues --   -0.87113  -0.86907  -0.85412  -0.85029  -0.84436
  Beta  occ. eigenvalues --   -0.83476  -0.82921  -0.82535  -0.82274  -0.81624
  Beta  occ. eigenvalues --   -0.81487  -0.80835  -0.80115  -0.79853  -0.79679
  Beta  occ. eigenvalues --   -0.79270  -0.78867  -0.78090  -0.76987  -0.76351
  Beta  occ. eigenvalues --   -0.75336  -0.74531  -0.74356  -0.74190  -0.73777
  Beta  occ. eigenvalues --   -0.73515  -0.73302  -0.72767  -0.72604  -0.72248
  Beta  occ. eigenvalues --   -0.72095  -0.72079  -0.71881  -0.71709  -0.71609
  Beta  occ. eigenvalues --   -0.71514  -0.71249  -0.70327  -0.70256  -0.69722
  Beta  occ. eigenvalues --   -0.69391  -0.69156  -0.68657  -0.67070  -0.66540
  Beta  occ. eigenvalues --   -0.64060  -0.63455  -0.63103  -0.62691  -0.58080
  Beta  occ. eigenvalues --   -0.56334  -0.55526
  Beta virt. eigenvalues --   -0.44865  -0.30634  -0.28846  -0.27152  -0.26269
  Beta virt. eigenvalues --   -0.23622  -0.22106  -0.20632  -0.19917  -0.19737
  Beta virt. eigenvalues --   -0.19426  -0.18436  -0.17931  -0.17773  -0.16445

 Mulliken charges and spin densities:
               1          2
     1  C   -0.088254   0.069716
     2  C   -0.289312   0.019458
     3  S    0.328031   0.396012
     4  C    0.080467   0.091583
     5  C   -0.108010   0.030011
     6  C   -0.164587   0.063197
     7  C    0.076327  -0.055699
     8  C   -0.115359  -0.047981
     9  H    0.199705  -0.004778
    10  C   -0.038710   0.001998
    11  C   -0.020836  -0.033484
    12  C   -0.063978   0.086005
    13  C    0.121443   0.005131
    14  H    0.210360   0.000486
    15  H    0.170222   0.000710
    16  H    0.191437  -0.002789
    17  C   -0.050891   0.175801
    18  H    0.223833  -0.001418
    19  H    0.132884  -0.002249
    20  H    0.166829   0.001730
    21  H    0.193125  -0.007261
    22  S    0.168998   0.172606
    23  C   -0.528920  -0.004504
    24  C    0.096186  -0.000480
    25  C    0.081306  -0.001472
    26  N    0.041225   0.016307
    27  N    0.037850   0.017882
    28  C   -0.256305  -0.000492
    29  H    0.197726   0.001042
    30  H    0.134585  -0.000117
    31  H    0.191584   0.000769
    32  C   -0.258540  -0.000670
    33  H    0.189044   0.000726
    34  H    0.200921   0.000987
    35  H    0.152788   0.000090
    36  C   -0.262367  -0.000772
    37  H    0.195193   0.001091
    38  H    0.141286  -0.000072
    39  H    0.195266   0.001083
    40  C   -0.263185  -0.000662
    41  H    0.188460   0.000761
    42  H    0.203746   0.001059
    43  H    0.153403   0.000071
    44  C   -0.485232   0.005476
    45  C    0.094128  -0.003930
    46  C    0.084777  -0.004323
    47  N    0.036735   0.004007
    48  N    0.033683   0.005525
    49  C   -0.257779   0.000275
    50  H    0.196224   0.000346
    51  H    0.137757  -0.000123
    52  H    0.191680   0.000014
    53  C   -0.261377  -0.000199
    54  H    0.188064   0.000149
    55  H    0.200242   0.000338
    56  H    0.151814   0.000058
    57  C   -0.258173  -0.000187
    58  H    0.191986   0.000293
    59  H    0.129167  -0.000046
    60  H    0.192756   0.000474
    61  C   -0.263310  -0.000198
    62  H    0.185479   0.000252
    63  H    0.201186   0.000368
    64  H    0.155217   0.000018
 Sum of Mulliken charges =   3.00000   1.00000

 Dipole moment (field-independent basis, Debye):
    X=             -0.2632    Y=              2.0452    Z=             -0.2577  Tot=              2.0781
 Quadrupole moment (field-independent basis, Debye-Ang):
   XX=            370.3681   YY=           -121.5901   ZZ=           -172.9987
   XY=             -6.2932   XZ=              3.8302   YZ=             -1.3911

 Normal termination of Gaussian 16 at Wed Jan 27 13:05:12 2021.
