 Gaussian 16, Revision A.03,
 Gaussian 16:  EM64L-G16RevA.03 25-Dec-2016

 ----------------------------------------------------------------------
 #P LC-wHPBE/TZVP iop(3/107=0178000000, 3/108=0178000000) scf=(conver=6
 ,fermi,ndamp=35,noincfock,novaracc,vshift=500,xqc)
 ----------------------------------------------------------------------

 -------------
 H32 C26 S2 N4
 -------------
 Symbolic Z-matrix:
 Charge =  3 Multiplicity = 2

                         Standard orientation:
 ---------------------------------------------------------------------
 Center     Atomic      Atomic             Coordinates (Angstroms)
 Number     Number       Type             X           Y           Z
 ---------------------------------------------------------------------
      1          6           0        2.928949   -0.209586    0.466429
      2          6           0        1.563914   -0.061175    0.303790
      3         16           0        0.549634   -0.929940    1.465043
      4          6           0        1.080492    0.744795   -0.706590
      5          6           0       -1.720975   -1.178026   -0.124019
      6          6           0       -1.104728   -0.556786    0.961278
      7          6           0        3.804439    0.453059   -0.373760
      8          6           0        1.957571    1.398720   -1.546095
      9          1           0        0.017059    0.867388   -0.843825
     10          6           0       -3.055310   -0.905897   -0.375396
     11          6           0       -1.834379    0.303673    1.763498
     12          6           0       -3.157322    0.570140    1.506853
     13          6           0       -3.772824   -0.043708    0.429435
     14          1           0       -3.535939   -1.385849   -1.215765
     15          1           0       -1.346414    0.763075    2.610001
     16          1           0       -3.711030    1.227115    2.160412
     17          6           0        3.316329    1.262630   -1.386512
     18          1           0        3.309964   -0.825983    1.268943
     19          1           0        0.121390   -2.546838   -0.437504
     20          1           0        1.570409    2.020933   -2.339064
     21          1           0        3.993957    1.766527   -2.059405
     22         16           0       -0.923466   -2.279512   -1.229412
     23          6           0       -5.179371    0.186625    0.159910
     24          6           0       -6.258258    1.013194    0.194238
     25          6           0       -6.373984   -0.291545   -0.281001
     26          7           0       -6.778879    2.172200    0.466391
     27          7           0       -7.085837   -1.264246   -0.765069
     28          6           0       -5.943792    3.274283    0.907684
     29          1           0       -6.187951    3.545500    1.931936
     30          1           0       -4.898805    2.994168    0.846509
     31          1           0       -6.108951    4.134804    0.264794
     32          6           0       -8.194976    2.451187    0.318309
     33          1           0       -8.537142    3.011091    1.183702
     34          1           0       -8.380874    3.039067   -0.577705
     35          1           0       -8.758216    1.527533    0.273817
     36          6           0       -6.515968   -2.589608   -0.931428
     37          1           0       -6.460524   -2.846499   -1.986434
     38          1           0       -5.524243   -2.624805   -0.496396
     39          1           0       -7.140387   -3.318442   -0.421721
     40          6           0       -8.484929   -1.112006   -1.118438
     41          1           0       -8.667734   -1.621246   -2.059984
     42          1           0       -9.125917   -1.545202   -0.353886
     43          1           0       -8.728287   -0.065327   -1.252120
     44          6           0        5.234909    0.301436   -0.192555
     45          6           0        6.482207    0.837696   -0.274291
     46          6           0        6.296202   -0.469144    0.166373
     47          7           0        7.258316    1.842942   -0.551570
     48          7           0        6.771609   -1.601745    0.593499
     49          6           0        6.699705    3.135271   -0.904858
     50          1           0        6.943427    3.382636   -1.935256
     51          1           0        5.623434    3.119821   -0.780416
     52          1           0        7.111169    3.899344   -0.250646
     53          6           0        8.704916    1.757804   -0.486526
     54          1           0        9.127537    2.257490   -1.353238
     55          1           0        9.080352    2.238157    0.414316
     56          1           0        9.022841    0.722915   -0.509579
     57          6           0        5.902929   -2.750782    0.768792
     58          1           0        5.850729   -3.027562    1.819029
     59          1           0        4.908582   -2.521281    0.404440
     60          1           0        6.292204   -3.591280    0.200176
     61          6           0        8.181475   -1.806186    0.866823
     62          1           0        8.283723   -2.375263    1.786100
     63          1           0        8.657299   -2.356258    0.057912
     64          1           0        8.679880   -0.854950    1.006340
 ---------------------------------------------------------------------

 SCF Done:  E(ULC-wHPBE) =  -2023.29470897     A.U. after   33 cycles
 SCF Done:  E(ULC-wHPBE) =  -2023.29473431     a.u. after    2 cycles

 The electronic state is 2-A.
 Alpha  occ. eigenvalues --  -88.55634 -88.50967 -14.43138 -14.43131 -14.42594
 Alpha  occ. eigenvalues --  -14.42374 -10.35784 -10.35731 -10.35220 -10.35127
 Alpha  occ. eigenvalues --  -10.35109 -10.34736 -10.34418 -10.32511 -10.32075
 Alpha  occ. eigenvalues --  -10.31682 -10.31556 -10.30575 -10.30339 -10.30253
 Alpha  occ. eigenvalues --  -10.30153 -10.30150 -10.29979 -10.28891 -10.28219
 Alpha  occ. eigenvalues --  -10.28171 -10.28168 -10.27570 -10.27566 -10.27539
 Alpha  occ. eigenvalues --  -10.27255 -10.27024  -8.14542  -8.10177  -6.16596
 Alpha  occ. eigenvalues --   -6.16162  -6.16015  -6.12320  -6.11840  -6.11380
 Alpha  occ. eigenvalues --   -1.31468  -1.30900  -1.28424  -1.27850  -1.24237
 Alpha  occ. eigenvalues --   -1.23544  -1.23149  -1.21586  -1.17067  -1.14612
 Alpha  occ. eigenvalues --   -1.11628  -1.10604  -1.07178  -1.06062  -1.04385
 Alpha  occ. eigenvalues --   -1.04109  -1.03961  -1.03474  -1.03311  -1.02835
 Alpha  occ. eigenvalues --   -1.02127  -1.01685  -0.99273  -0.97850  -0.96503
 Alpha  occ. eigenvalues --   -0.94955  -0.90479  -0.90086  -0.87267  -0.86907
 Alpha  occ. eigenvalues --   -0.86823  -0.86547  -0.85230  -0.84764  -0.84182
 Alpha  occ. eigenvalues --   -0.83166  -0.82645  -0.82211  -0.81954  -0.81325
 Alpha  occ. eigenvalues --   -0.81219  -0.80514  -0.79871  -0.79643  -0.79341
 Alpha  occ. eigenvalues --   -0.79106  -0.78596  -0.77880  -0.77044  -0.76257
 Alpha  occ. eigenvalues --   -0.75169  -0.74231  -0.74210  -0.74006  -0.73501
 Alpha  occ. eigenvalues --   -0.73231  -0.73123  -0.72547  -0.72399  -0.72014
 Alpha  occ. eigenvalues --   -0.71822  -0.71797  -0.71663  -0.71475  -0.71341
 Alpha  occ. eigenvalues --   -0.71214  -0.70948  -0.70183  -0.70097  -0.69490
 Alpha  occ. eigenvalues --   -0.69099  -0.68936  -0.68475  -0.68176  -0.67344
 Alpha  occ. eigenvalues --   -0.64160  -0.63436  -0.62987  -0.62435  -0.60962
 Alpha  occ. eigenvalues --   -0.59340  -0.56339  -0.55746
 Alpha virt. eigenvalues --   -0.31214  -0.29535  -0.27909  -0.27146  -0.24159
 Alpha virt. eigenvalues --   -0.22566  -0.21103  -0.20292  -0.20091  -0.19653
 Alpha virt. eigenvalues --   -0.18799  -0.18174  -0.18151  -0.17045  -0.15589

  Beta  occ. eigenvalues --  -88.55441 -88.50887 -14.43100 -14.43096 -14.42582
  Beta  occ. eigenvalues --  -14.42365 -10.35786 -10.35735 -10.35226 -10.35131
  Beta  occ. eigenvalues --  -10.35042 -10.34650 -10.34376 -10.32494 -10.32074
  Beta  occ. eigenvalues --  -10.31727 -10.31546 -10.30488 -10.30363 -10.30252
  Beta  occ. eigenvalues --  -10.30039 -10.30039 -10.29775 -10.28937 -10.28220
  Beta  occ. eigenvalues --  -10.28171 -10.28168 -10.27571 -10.27567 -10.27538
  Beta  occ. eigenvalues --  -10.27256 -10.27024  -8.14345  -8.10096  -6.16472
  Beta  occ. eigenvalues --   -6.15954  -6.15569  -6.12262  -6.11782  -6.11174
  Beta  occ. eigenvalues --   -1.31431  -1.30891  -1.28373  -1.27835  -1.24053
  Beta  occ. eigenvalues --   -1.23427  -1.23056  -1.21389  -1.16647  -1.14335
  Beta  occ. eigenvalues --   -1.11454  -1.10493  -1.06756  -1.05648  -1.04343
  Beta  occ. eigenvalues --   -1.04099  -1.03949  -1.03469  -1.03303  -1.02832
  Beta  occ. eigenvalues --   -1.02097  -1.01667  -0.99086  -0.97708  -0.96330
  Beta  occ. eigenvalues --   -0.94737  -0.90357  -0.89977  -0.87226  -0.86885
  Beta  occ. eigenvalues --   -0.86783  -0.86528  -0.85058  -0.84626  -0.84046
  Beta  occ. eigenvalues --   -0.83097  -0.82585  -0.82168  -0.81901  -0.81275
  Beta  occ. eigenvalues --   -0.81173  -0.80480  -0.79795  -0.79504  -0.79316
  Beta  occ. eigenvalues --   -0.78935  -0.78500  -0.77710  -0.76581  -0.76010
  Beta  occ. eigenvalues --   -0.75029  -0.74184  -0.74047  -0.73845  -0.73486
  Beta  occ. eigenvalues --   -0.73180  -0.72996  -0.72396  -0.72267  -0.71957
  Beta  occ. eigenvalues --   -0.71803  -0.71755  -0.71593  -0.71381  -0.71334
  Beta  occ. eigenvalues --   -0.71184  -0.70925  -0.69984  -0.69966  -0.69450
  Beta  occ. eigenvalues --   -0.69070  -0.68883  -0.68331  -0.66777  -0.66262
  Beta  occ. eigenvalues --   -0.63803  -0.63134  -0.62853  -0.62389  -0.57896
  Beta  occ. eigenvalues --   -0.56147  -0.55278
  Beta virt. eigenvalues --   -0.44903  -0.30795  -0.28980  -0.27339  -0.26423
  Beta virt. eigenvalues --   -0.23805  -0.22317  -0.20844  -0.20120  -0.19988
  Beta virt. eigenvalues --   -0.19629  -0.18645  -0.18116  -0.17972  -0.16648

 Mulliken charges and spin densities:
               1          2
     1  C   -0.088386   0.064822
     2  C   -0.288739   0.020646
     3  S    0.321450   0.384649
     4  C    0.080712   0.089993
     5  C   -0.108226   0.029991
     6  C   -0.161907   0.065133
     7  C    0.076974  -0.052652
     8  C   -0.115287  -0.045763
     9  H    0.198534  -0.004678
    10  C   -0.038318   0.002273
    11  C   -0.020553  -0.034311
    12  C   -0.062762   0.089743
    13  C    0.122027   0.004408
    14  H    0.209513   0.000477
    15  H    0.169751   0.000766
    16  H    0.190818  -0.002959
    17  C   -0.051422   0.172494
    18  H    0.222660  -0.001216
    19  H    0.133769  -0.002231
    20  H    0.165891   0.001653
    21  H    0.192068  -0.007153
    22  S    0.170056   0.176702
    23  C   -0.529006  -0.003763
    24  C    0.096360  -0.000753
    25  C    0.081515  -0.001772
    26  N    0.041955   0.017562
    27  N    0.038596   0.019256
    28  C   -0.257306  -0.000512
    29  H    0.198124   0.001130
    30  H    0.135156  -0.000119
    31  H    0.192022   0.000835
    32  C   -0.259509  -0.000707
    33  H    0.189475   0.000786
    34  H    0.201311   0.001079
    35  H    0.153246   0.000097
    36  C   -0.263388  -0.000801
    37  H    0.195574   0.001184
    38  H    0.141867  -0.000077
    39  H    0.195704   0.001170
    40  C   -0.264138  -0.000696
    41  H    0.188885   0.000824
    42  H    0.204134   0.001160
    43  H    0.153868   0.000078
    44  C   -0.485037   0.005415
    45  C    0.094311  -0.003910
    46  C    0.085039  -0.004296
    47  N    0.037309   0.005084
    48  N    0.034312   0.006714
    49  C   -0.258805   0.000243
    50  H    0.196411   0.000420
    51  H    0.138432  -0.000115
    52  H    0.191916   0.000061
    53  C   -0.262339  -0.000233
    54  H    0.188336   0.000194
    55  H    0.200466   0.000413
    56  H    0.152218   0.000065
    57  C   -0.259236  -0.000231
    58  H    0.192206   0.000365
    59  H    0.129901  -0.000035
    60  H    0.192977   0.000551
    61  C   -0.264268  -0.000230
    62  H    0.185772   0.000303
    63  H    0.201396   0.000448
    64  H    0.155618   0.000024
 Sum of Mulliken charges =   3.00000   1.00000

 Dipole moment (field-independent basis, Debye):
    X=             -0.3956    Y=              2.0356    Z=             -0.2872  Tot=              2.0935
 Quadrupole moment (field-independent basis, Debye-Ang):
   XX=            371.3704   YY=           -121.4485   ZZ=           -173.0621
   XY=             -6.3338   XZ=              3.8577   YZ=             -1.2843

 Normal termination of Gaussian 16 at Wed Jan 27 09:59:44 2021.
