 Gaussian 16, Revision A.03,
 Gaussian 16:  EM64L-G16RevA.03 25-Dec-2016

 ----------------------------------------------------------------------
 #P LC-wHPBE/TZVP iop(3/107=0328100000, 3/108=0328100000) scf=(conver=6
 ,fermi,ndamp=35,noincfock,novaracc,vshift=500,xqc)
 ----------------------------------------------------------------------

 -------------
 H32 C26 S2 N4
 -------------
 Symbolic Z-matrix:
 Charge =  3 Multiplicity = 2

                         Standard orientation:
 ---------------------------------------------------------------------
 Center     Atomic      Atomic             Coordinates (Angstroms)
 Number     Number       Type             X           Y           Z
 ---------------------------------------------------------------------
      1          6           0        2.928949   -0.209586    0.466429
      2          6           0        1.563914   -0.061175    0.303790
      3         16           0        0.549634   -0.929940    1.465043
      4          6           0        1.080492    0.744795   -0.706590
      5          6           0       -1.720975   -1.178026   -0.124019
      6          6           0       -1.104728   -0.556786    0.961278
      7          6           0        3.804439    0.453059   -0.373760
      8          6           0        1.957571    1.398720   -1.546095
      9          1           0        0.017059    0.867388   -0.843825
     10          6           0       -3.055310   -0.905897   -0.375396
     11          6           0       -1.834379    0.303673    1.763498
     12          6           0       -3.157322    0.570140    1.506853
     13          6           0       -3.772824   -0.043708    0.429435
     14          1           0       -3.535939   -1.385849   -1.215765
     15          1           0       -1.346414    0.763075    2.610001
     16          1           0       -3.711030    1.227115    2.160412
     17          6           0        3.316329    1.262630   -1.386512
     18          1           0        3.309964   -0.825983    1.268943
     19          1           0        0.121390   -2.546838   -0.437504
     20          1           0        1.570409    2.020933   -2.339064
     21          1           0        3.993957    1.766527   -2.059405
     22         16           0       -0.923466   -2.279512   -1.229412
     23          6           0       -5.179371    0.186625    0.159910
     24          6           0       -6.258258    1.013194    0.194238
     25          6           0       -6.373984   -0.291545   -0.281001
     26          7           0       -6.778879    2.172200    0.466391
     27          7           0       -7.085837   -1.264246   -0.765069
     28          6           0       -5.943792    3.274283    0.907684
     29          1           0       -6.187951    3.545500    1.931936
     30          1           0       -4.898805    2.994168    0.846509
     31          1           0       -6.108951    4.134804    0.264794
     32          6           0       -8.194976    2.451187    0.318309
     33          1           0       -8.537142    3.011091    1.183702
     34          1           0       -8.380874    3.039067   -0.577705
     35          1           0       -8.758216    1.527533    0.273817
     36          6           0       -6.515968   -2.589608   -0.931428
     37          1           0       -6.460524   -2.846499   -1.986434
     38          1           0       -5.524243   -2.624805   -0.496396
     39          1           0       -7.140387   -3.318442   -0.421721
     40          6           0       -8.484929   -1.112006   -1.118438
     41          1           0       -8.667734   -1.621246   -2.059984
     42          1           0       -9.125917   -1.545202   -0.353886
     43          1           0       -8.728287   -0.065327   -1.252120
     44          6           0        5.234909    0.301436   -0.192555
     45          6           0        6.482207    0.837696   -0.274291
     46          6           0        6.296202   -0.469144    0.166373
     47          7           0        7.258316    1.842942   -0.551570
     48          7           0        6.771609   -1.601745    0.593499
     49          6           0        6.699705    3.135271   -0.904858
     50          1           0        6.943427    3.382636   -1.935256
     51          1           0        5.623434    3.119821   -0.780416
     52          1           0        7.111169    3.899344   -0.250646
     53          6           0        8.704916    1.757804   -0.486526
     54          1           0        9.127537    2.257490   -1.353238
     55          1           0        9.080352    2.238157    0.414316
     56          1           0        9.022841    0.722915   -0.509579
     57          6           0        5.902929   -2.750782    0.768792
     58          1           0        5.850729   -3.027562    1.819029
     59          1           0        4.908582   -2.521281    0.404440
     60          1           0        6.292204   -3.591280    0.200176
     61          6           0        8.181475   -1.806186    0.866823
     62          1           0        8.283723   -2.375263    1.786100
     63          1           0        8.657299   -2.356258    0.057912
     64          1           0        8.679880   -0.854950    1.006340
 ---------------------------------------------------------------------

 SCF Done:  E(ULC-wHPBE) =  -2023.55538689     A.U. after   33 cycles
 SCF Done:  E(ULC-wHPBE) =  -2023.55545619     a.u. after    2 cycles

 The electronic state is 2-A.
 Alpha  occ. eigenvalues --  -88.67983 -88.56480 -14.51393 -14.51199 -14.50052
 Alpha  occ. eigenvalues --  -14.49996 -10.45768 -10.45330 -10.45244 -10.43944
 Alpha  occ. eigenvalues --  -10.43886 -10.42717 -10.42572 -10.42173 -10.41695
 Alpha  occ. eigenvalues --  -10.41272 -10.41118 -10.41038 -10.40141 -10.39745
 Alpha  occ. eigenvalues --  -10.39122 -10.38682 -10.37661 -10.37206 -10.37158
 Alpha  occ. eigenvalues --  -10.36629 -10.36146 -10.35935 -10.35755 -10.35563
 Alpha  occ. eigenvalues --  -10.35074 -10.35017  -8.26913  -8.15958  -6.28578
 Alpha  occ. eigenvalues --   -6.28522  -6.28000  -6.17916  -6.17405  -6.16597
 Alpha  occ. eigenvalues --   -1.40701  -1.39373  -1.37116  -1.35896  -1.34401
 Alpha  occ. eigenvalues --   -1.32445  -1.31492  -1.30671  -1.26896  -1.21814
 Alpha  occ. eigenvalues --   -1.21001  -1.20415  -1.16074  -1.12720  -1.12487
 Alpha  occ. eigenvalues --   -1.11971  -1.11396  -1.11168  -1.10847  -1.09988
 Alpha  occ. eigenvalues --   -1.09952  -1.08710  -1.07995  -1.05648  -1.03685
 Alpha  occ. eigenvalues --   -1.02636  -0.98351  -0.95747  -0.94315  -0.93917
 Alpha  occ. eigenvalues --   -0.92883  -0.92620  -0.92204  -0.91665  -0.90752
 Alpha  occ. eigenvalues --   -0.90116  -0.89461  -0.88353  -0.88316  -0.87636
 Alpha  occ. eigenvalues --   -0.87250  -0.86353  -0.86248  -0.86161  -0.85245
 Alpha  occ. eigenvalues --   -0.85172  -0.85042  -0.83875  -0.83186  -0.81686
 Alpha  occ. eigenvalues --   -0.80940  -0.80512  -0.79779  -0.79639  -0.79248
 Alpha  occ. eigenvalues --   -0.78877  -0.78494  -0.78213  -0.77834  -0.77788
 Alpha  occ. eigenvalues --   -0.77469  -0.77269  -0.76967  -0.76948  -0.76609
 Alpha  occ. eigenvalues --   -0.76459  -0.75806  -0.75710  -0.75089  -0.74994
 Alpha  occ. eigenvalues --   -0.74501  -0.74007  -0.73248  -0.73021  -0.70431
 Alpha  occ. eigenvalues --   -0.69026  -0.68010  -0.67852  -0.67127  -0.66765
 Alpha  occ. eigenvalues --   -0.60862  -0.60138  -0.58718
 Alpha virt. eigenvalues --   -0.29078  -0.28475  -0.27084  -0.23954  -0.21536
 Alpha virt. eigenvalues --   -0.19490  -0.18250  -0.17426  -0.17215  -0.16199
 Alpha virt. eigenvalues --   -0.15956  -0.15708  -0.14931  -0.13534  -0.13247

  Beta  occ. eigenvalues --  -88.67673 -88.56473 -14.51401 -14.51210 -14.50044
  Beta  occ. eigenvalues --  -14.49988 -10.45724 -10.45341 -10.45252 -10.43942
  Beta  occ. eigenvalues --  -10.43885 -10.42742 -10.42528 -10.42310 -10.41484
  Beta  occ. eigenvalues --  -10.41245 -10.40802 -10.40752 -10.40116 -10.39752
  Beta  occ. eigenvalues --  -10.39271 -10.38639 -10.37677 -10.37206 -10.37162
  Beta  occ. eigenvalues --  -10.36628 -10.36145 -10.35934 -10.35756 -10.35564
  Beta  occ. eigenvalues --  -10.35074 -10.35017  -8.26590  -8.15950  -6.28368
  Beta  occ. eigenvalues --   -6.27808  -6.27657  -6.17907  -6.17392  -6.16590
  Beta  occ. eigenvalues --   -1.40717  -1.39364  -1.37130  -1.35885  -1.33858
  Beta  occ. eigenvalues --   -1.32342  -1.31396  -1.30517  -1.26183  -1.21692
  Beta  occ. eigenvalues --   -1.20798  -1.20023  -1.15098  -1.12706  -1.12411
  Beta  occ. eigenvalues --   -1.11967  -1.11369  -1.11171  -1.10844  -1.09950
  Beta  occ. eigenvalues --   -1.09926  -1.08674  -1.07756  -1.05494  -1.03394
  Beta  occ. eigenvalues --   -1.02451  -0.98037  -0.95703  -0.94233  -0.93885
  Beta  occ. eigenvalues --   -0.92823  -0.92503  -0.92143  -0.91524  -0.90360
  Beta  occ. eigenvalues --   -0.89982  -0.89427  -0.88308  -0.88259  -0.87542
  Beta  occ. eigenvalues --   -0.87195  -0.86304  -0.86194  -0.86068  -0.85148
  Beta  occ. eigenvalues --   -0.84869  -0.83927  -0.83507  -0.83094  -0.81525
  Beta  occ. eigenvalues --   -0.80593  -0.80270  -0.79642  -0.79447  -0.79170
  Beta  occ. eigenvalues --   -0.78826  -0.78336  -0.78084  -0.77803  -0.77451
  Beta  occ. eigenvalues --   -0.77381  -0.77117  -0.76914  -0.76746  -0.76551
  Beta  occ. eigenvalues --   -0.76439  -0.75781  -0.75593  -0.75014  -0.74528
  Beta  occ. eigenvalues --   -0.74036  -0.73225  -0.73000  -0.71114  -0.70004
  Beta  occ. eigenvalues --   -0.68643  -0.67920  -0.67180  -0.66727  -0.60842
  Beta  occ. eigenvalues --   -0.59833  -0.58681
  Beta virt. eigenvalues --   -0.43742  -0.28351  -0.27611  -0.25261  -0.23790
  Beta virt. eigenvalues --   -0.21131  -0.18861  -0.18039  -0.17289  -0.17196
  Beta virt. eigenvalues --   -0.16142  -0.15887  -0.15488  -0.14817  -0.13429

 Mulliken charges and spin densities:
               1          2
     1  C   -0.077154   0.175753
     2  C   -0.306439  -0.002714
     3  S    0.437543   0.595631
     4  C    0.086438   0.185990
     5  C   -0.112726   0.018201
     6  C   -0.224489  -0.007425
     7  C    0.067717  -0.149367
     8  C   -0.121641  -0.145962
     9  H    0.233920  -0.009872
    10  C   -0.056280  -0.014929
    11  C   -0.018599   0.024029
    12  C   -0.107127  -0.008034
    13  C    0.128693   0.020095
    14  H    0.229048   0.001097
    15  H    0.181942  -0.001929
    16  H    0.207347   0.000840
    17  C   -0.035643   0.321262
    18  H    0.252662  -0.005656
    19  H    0.106128  -0.001472
    20  H    0.193503   0.005016
    21  H    0.222745  -0.012043
    22  S    0.105116   0.015128
    23  C   -0.501576  -0.006677
    24  C    0.096441   0.001425
    25  C    0.080697   0.001302
    26  N    0.011203   0.003846
    27  N    0.008212   0.003951
    28  C   -0.251656  -0.000287
    29  H    0.195058   0.000213
    30  H    0.130569   0.000020
    31  H    0.187190   0.000215
    32  C   -0.252773  -0.000200
    33  H    0.185137   0.000153
    34  H    0.198862   0.000182
    35  H    0.147711   0.000013
    36  C   -0.257432  -0.000301
    37  H    0.193306   0.000223
    38  H    0.138431   0.000040
    39  H    0.190866   0.000212
    40  C   -0.257660  -0.000200
    41  H    0.184872   0.000146
    42  H    0.201793   0.000190
    43  H    0.147859   0.000016
    44  C   -0.467585   0.018996
    45  C    0.093138  -0.008719
    46  C    0.085571  -0.009423
    47  N    0.013315  -0.004792
    48  N    0.010052  -0.003644
    49  C   -0.252391   0.000877
    50  H    0.199684  -0.000190
    51  H    0.129308  -0.000311
    52  H    0.193246  -0.000400
    53  C   -0.256388   0.000174
    54  H    0.188550  -0.000189
    55  H    0.203030  -0.000163
    56  H    0.148405   0.000019
    57  C   -0.253019   0.000468
    58  H    0.194990  -0.000215
    59  H    0.122210  -0.000433
    60  H    0.194753  -0.000045
    61  C   -0.258340   0.000157
    62  H    0.185880  -0.000113
    63  H    0.204288  -0.000161
    64  H    0.151494  -0.000015
 Sum of Mulliken charges =   3.00000   1.00000

 Dipole moment (field-independent basis, Debye):
    X=              3.7658    Y=              2.9786    Z=              0.3217  Tot=              4.8122
 Quadrupole moment (field-independent basis, Debye-Ang):
   XX=            362.8124   YY=           -124.4751   ZZ=           -171.9363
   XY=             -5.6261   XZ=              3.2860   YZ=             -4.4597

 Normal termination of Gaussian 16 at Wed Jan 27 03:23:40 2021.
