 Gaussian 16, Revision A.03,
 Gaussian 16:  EM64L-G16RevA.03 25-Dec-2016

 ----------------------------------------------------------------------
 #P LC-wHPBE/TZVP iop(3/107=0208900000, 3/108=0208900000) scf=(conver=6
 ,fermi,ndamp=35,noincfock,novaracc,vshift=500,xqc)
 ----------------------------------------------------------------------

 ----------
 H21 C19 N2
 ----------
 Symbolic Z-matrix:
 Charge =  1 Multiplicity = 1

                         Standard orientation:
 ---------------------------------------------------------------------
 Center     Atomic      Atomic             Coordinates (Angstroms)
 Number     Number       Type             X           Y           Z
 ---------------------------------------------------------------------
      1          6           0       -5.924302   -1.175178   -0.282560
      2          6           0       -6.625626    0.000025    0.000251
      3          6           0       -4.530324   -1.177472   -0.278212
      4          6           0       -5.924206    1.175202    0.282951
      5          6           0       -3.810936   -0.000036    0.000021
      6          6           0       -4.530233    1.177435    0.278371
      7          1           0       -7.716547    0.000056    0.000331
      8          1           0       -3.994064   -2.094974   -0.527939
      9          1           0       -6.466302    2.093210    0.514746
     10          1           0       -3.993880    2.094904    0.528010
     11          6           0       -2.333716   -0.000062   -0.000109
     12          6           0       -1.604784    1.119278   -0.452707
     13          6           0       -1.604752   -1.119433    0.452341
     14          6           0       -0.216850    1.125770   -0.449243
     15          6           0       -0.216813   -1.125977    0.448670
     16          6           0        0.504919   -0.000106   -0.000309
     17          1           0       -2.141671    1.985727   -0.840835
     18          1           0       -2.141597   -1.985891    0.840507
     19          1           0        0.315693    1.995203   -0.838189
     20          1           0        0.315745   -1.995465    0.837475
     21          1           0       -6.466484   -2.093156   -0.514265
     22          6           0        1.942874   -0.000086   -0.000402
     23          6           0        3.143323   -0.702637    0.003392
     24          6           0        3.143127    0.702801   -0.003915
     25          7           0        3.787080   -1.855019   -0.001668
     26          7           0        3.786774    1.855252    0.001097
     27          6           0        3.068411   -3.122520   -0.167733
     28          1           0        3.187886   -3.748580    0.728596
     29          1           0        2.005788   -2.927607   -0.341041
     30          1           0        3.471162   -3.663551   -1.036238
     31          6           0        5.245121   -1.944160    0.100275
     32          1           0        5.509149   -2.713998    0.838669
     33          1           0        5.688951   -2.217262   -0.869111
     34          1           0        5.659251   -0.989594    0.439085
     35          6           0        3.068047    3.122616    0.168130
     36          1           0        3.188116    3.749602   -0.727455
     37          1           0        2.005304    2.927538    0.340531
     38          1           0        3.470192    3.662707    1.037509
     39          6           0        5.244950    1.944232   -0.099391
     40          1           0        5.509538    2.718440   -0.832954
     41          1           0        5.688631    2.211256    0.871774
     42          1           0        5.658779    0.991638   -0.444142
 ---------------------------------------------------------------------

 SCF Done:  E(RLC-wHPBE) =  -845.376366612     A.U. after   16 cycles

 The electronic state is 1-A.
 Alpha  occ. eigenvalues --  -14.30277 -14.30276 -10.23040 -10.23007 -10.19330
 Alpha  occ. eigenvalues --  -10.17277 -10.17276 -10.16871 -10.16871 -10.15006
 Alpha  occ. eigenvalues --  -10.13229 -10.13144 -10.13143 -10.11804 -10.11803
 Alpha  occ. eigenvalues --  -10.10542 -10.09142 -10.09140 -10.08575 -10.08564
 Alpha  occ. eigenvalues --  -10.08512  -1.17517  -1.15014  -1.09442  -1.02630
 Alpha  occ. eigenvalues --   -0.98757  -0.94193  -0.92149  -0.91955  -0.91440
 Alpha  occ. eigenvalues --   -0.90504  -0.89477  -0.87744  -0.87683  -0.80919
 Alpha  occ. eigenvalues --   -0.78647  -0.74806  -0.74787  -0.73687  -0.73494
 Alpha  occ. eigenvalues --   -0.73028  -0.69611  -0.69238  -0.68457  -0.67269
 Alpha  occ. eigenvalues --   -0.67243  -0.64539  -0.63495  -0.61982  -0.61802
 Alpha  occ. eigenvalues --   -0.61550  -0.60619  -0.60154  -0.59985  -0.59783
 Alpha  occ. eigenvalues --   -0.59196  -0.59184  -0.58719  -0.58121  -0.57779
 Alpha  occ. eigenvalues --   -0.56266  -0.56218  -0.55209  -0.53321  -0.52682
 Alpha  occ. eigenvalues --   -0.51636  -0.49988  -0.48868  -0.48296  -0.46934
 Alpha  occ. eigenvalues --   -0.44262  -0.42245  -0.40623  -0.38490
 Alpha virt. eigenvalues --   -0.12633  -0.07175  -0.05025  -0.04819  -0.03943
 Alpha virt. eigenvalues --   -0.03544  -0.01062  -0.00563   0.00139   0.01073
 Alpha virt. eigenvalues --    0.01307   0.02192   0.03288   0.03776   0.04051

 Mulliken charges:
               1
     1  C   -0.092960
     2  C   -0.117979
     3  C   -0.120936
     4  C   -0.092958
     5  C   -0.001853
     6  C   -0.120940
     7  H    0.131737
     8  H    0.139085
     9  H    0.125707
    10  H    0.139085
    11  C    0.014322
    12  C   -0.157556
    13  C   -0.157562
    14  C   -0.099695
    15  C   -0.099727
    16  C    0.171420
    17  H    0.158013
    18  H    0.158006
    19  H    0.138887
    20  H    0.138846
    21  H    0.125708
    22  C   -0.462775
    23  C    0.050183
    24  C    0.050230
    25  N    0.010753
    26  N    0.010706
    27  C   -0.239001
    28  H    0.169176
    29  H    0.149740
    30  H    0.164487
    31  C   -0.242581
    32  H    0.165875
    33  H    0.174468
    34  H    0.139058
    35  C   -0.239119
    36  H    0.169238
    37  H    0.149658
    38  H    0.164560
    39  C   -0.243262
    40  H    0.165928
    41  H    0.174616
    42  H    0.139411
 Sum of Mulliken charges =   1.00000

 Dipole moment (field-independent basis, Debye):
    X=             11.6718    Y=              0.0004    Z=              0.0017  Tot=             11.6718
 Quadrupole moment (field-independent basis, Debye-Ang):
   XX=            -23.6531   YY=            -84.5128   ZZ=           -126.0688
   XY=              0.0018   XZ=              0.0060   YZ=             -0.3169

 Normal termination of Gaussian 16 at Thu Jan 21 04:25:31 2021.
