 Gaussian 16, Revision A.03,
 Gaussian 16:  EM64L-G16RevA.03 25-Dec-2016

 ----------------------------------------------------------------------
 #P LC-wHPBE/TZVP iop(3/107=0328100000, 3/108=0328100000) scf=(conver=6
 ,fermi,ndamp=35,noincfock,novaracc,vshift=500,xqc)
 ----------------------------------------------------------------------

 ----------
 H21 C19 N2
 ----------
 Symbolic Z-matrix:
 Charge =  1 Multiplicity = 1

                         Standard orientation:
 ---------------------------------------------------------------------
 Center     Atomic      Atomic             Coordinates (Angstroms)
 Number     Number       Type             X           Y           Z
 ---------------------------------------------------------------------
      1          6           0       -5.924302   -1.175178   -0.282560
      2          6           0       -6.625626    0.000025    0.000251
      3          6           0       -4.530324   -1.177472   -0.278212
      4          6           0       -5.924206    1.175202    0.282951
      5          6           0       -3.810936   -0.000036    0.000021
      6          6           0       -4.530233    1.177435    0.278371
      7          1           0       -7.716547    0.000056    0.000331
      8          1           0       -3.994064   -2.094974   -0.527939
      9          1           0       -6.466302    2.093210    0.514746
     10          1           0       -3.993880    2.094904    0.528010
     11          6           0       -2.333716   -0.000062   -0.000109
     12          6           0       -1.604784    1.119278   -0.452707
     13          6           0       -1.604752   -1.119433    0.452341
     14          6           0       -0.216850    1.125770   -0.449243
     15          6           0       -0.216813   -1.125977    0.448670
     16          6           0        0.504919   -0.000106   -0.000309
     17          1           0       -2.141671    1.985727   -0.840835
     18          1           0       -2.141597   -1.985891    0.840507
     19          1           0        0.315693    1.995203   -0.838189
     20          1           0        0.315745   -1.995465    0.837475
     21          1           0       -6.466484   -2.093156   -0.514265
     22          6           0        1.942874   -0.000086   -0.000402
     23          6           0        3.143323   -0.702637    0.003392
     24          6           0        3.143127    0.702801   -0.003915
     25          7           0        3.787080   -1.855019   -0.001668
     26          7           0        3.786774    1.855252    0.001097
     27          6           0        3.068411   -3.122520   -0.167733
     28          1           0        3.187886   -3.748580    0.728596
     29          1           0        2.005788   -2.927607   -0.341041
     30          1           0        3.471162   -3.663551   -1.036238
     31          6           0        5.245121   -1.944160    0.100275
     32          1           0        5.509149   -2.713998    0.838669
     33          1           0        5.688951   -2.217262   -0.869111
     34          1           0        5.659251   -0.989594    0.439085
     35          6           0        3.068047    3.122616    0.168130
     36          1           0        3.188116    3.749602   -0.727455
     37          1           0        2.005304    2.927538    0.340531
     38          1           0        3.470192    3.662707    1.037509
     39          6           0        5.244950    1.944232   -0.099391
     40          1           0        5.509538    2.718440   -0.832954
     41          1           0        5.688631    2.211256    0.871774
     42          1           0        5.658779    0.991638   -0.444142
 ---------------------------------------------------------------------

 SCF Done:  E(RLC-wHPBE) =  -845.498310441     A.U. after   15 cycles

 The electronic state is 1-A.
 Alpha  occ. eigenvalues --  -14.36715 -14.36714 -10.30437 -10.30400 -10.26478
 Alpha  occ. eigenvalues --  -10.23956 -10.23954 -10.23550 -10.23550 -10.21818
 Alpha  occ. eigenvalues --  -10.20058 -10.19984 -10.19983 -10.18525 -10.18523
 Alpha  occ. eigenvalues --  -10.17221 -10.15803 -10.15800 -10.15205 -10.15190
 Alpha  occ. eigenvalues --  -10.15142  -1.24642  -1.21793  -1.16155  -1.09634
 Alpha  occ. eigenvalues --   -1.05618  -1.00751  -0.98360  -0.98203  -0.97777
 Alpha  occ. eigenvalues --   -0.96460  -0.95397  -0.94037  -0.93791  -0.86620
 Alpha  occ. eigenvalues --   -0.84266  -0.79928  -0.79843  -0.78932  -0.78596
 Alpha  occ. eigenvalues --   -0.78196  -0.74379  -0.74333  -0.72960  -0.72097
 Alpha  occ. eigenvalues --   -0.72049  -0.69100  -0.68163  -0.66304  -0.66189
 Alpha  occ. eigenvalues --   -0.65884  -0.64937  -0.64391  -0.64191  -0.64084
 Alpha  occ. eigenvalues --   -0.63531  -0.63469  -0.62900  -0.62291  -0.61841
 Alpha  occ. eigenvalues --   -0.60494  -0.60272  -0.59373  -0.57241  -0.56806
 Alpha  occ. eigenvalues --   -0.55469  -0.53642  -0.52584  -0.51925  -0.49978
 Alpha  occ. eigenvalues --   -0.46901  -0.44817  -0.43112  -0.40646
 Alpha virt. eigenvalues --   -0.11182  -0.05337  -0.02840  -0.02779  -0.02128
 Alpha virt. eigenvalues --   -0.01612   0.00679   0.01595   0.02124   0.02986
 Alpha virt. eigenvalues --    0.03547   0.04202   0.05589   0.05986   0.06074

 Mulliken charges:
               1
     1  C   -0.108955
     2  C   -0.136170
     3  C   -0.141475
     4  C   -0.108952
     5  C   -0.000270
     6  C   -0.141481
     7  H    0.147854
     8  H    0.157437
     9  H    0.142400
    10  H    0.157437
    11  C   -0.000273
    12  C   -0.170819
    13  C   -0.170831
    14  C   -0.109034
    15  C   -0.109058
    16  C    0.162581
    17  H    0.176908
    18  H    0.176901
    19  H    0.158194
    20  H    0.158153
    21  H    0.142400
    22  C   -0.436218
    23  C    0.052629
    24  C    0.052708
    25  N   -0.013867
    26  N   -0.013943
    27  C   -0.235658
    28  H    0.171266
    29  H    0.146886
    30  H    0.165191
    31  C   -0.238856
    32  H    0.166393
    33  H    0.176679
    34  H    0.136063
    35  C   -0.235757
    36  H    0.171323
    37  H    0.146798
    38  H    0.165259
    39  C   -0.239573
    40  H    0.166434
    41  H    0.176840
    42  H    0.136454
 Sum of Mulliken charges =   1.00000

 Dipole moment (field-independent basis, Debye):
    X=             11.8406    Y=              0.0004    Z=              0.0017  Tot=             11.8406
 Quadrupole moment (field-independent basis, Debye-Ang):
   XX=            -23.7345   YY=            -83.9573   ZZ=           -125.8782
   XY=              0.0018   XZ=              0.0061   YZ=             -0.3703

 Normal termination of Gaussian 16 at Thu Jan 21 00:47:15 2021.
