 Gaussian 16, Revision A.03,
 Gaussian 16:  EM64L-G16RevA.03 25-Dec-2016

 ----------------------------------------------------------------------
 #P LC-wHPBE/TZVP iop(3/107=0186400000, 3/108=0186400000) scf=(conver=6
 ,fermi,ndamp=35,noincfock,novaracc,vshift=500,xqc)
 ----------------------------------------------------------------------

 ----------
 H21 C19 N2
 ----------
 Symbolic Z-matrix:
 Charge =  1 Multiplicity = 1

                         Standard orientation:
 ---------------------------------------------------------------------
 Center     Atomic      Atomic             Coordinates (Angstroms)
 Number     Number       Type             X           Y           Z
 ---------------------------------------------------------------------
      1          6           0       -5.924302   -1.175178   -0.282560
      2          6           0       -6.625626    0.000025    0.000251
      3          6           0       -4.530324   -1.177472   -0.278212
      4          6           0       -5.924206    1.175202    0.282951
      5          6           0       -3.810936   -0.000036    0.000021
      6          6           0       -4.530233    1.177435    0.278371
      7          1           0       -7.716547    0.000056    0.000331
      8          1           0       -3.994064   -2.094974   -0.527939
      9          1           0       -6.466302    2.093210    0.514746
     10          1           0       -3.993880    2.094904    0.528010
     11          6           0       -2.333716   -0.000062   -0.000109
     12          6           0       -1.604784    1.119278   -0.452707
     13          6           0       -1.604752   -1.119433    0.452341
     14          6           0       -0.216850    1.125770   -0.449243
     15          6           0       -0.216813   -1.125977    0.448670
     16          6           0        0.504919   -0.000106   -0.000309
     17          1           0       -2.141671    1.985727   -0.840835
     18          1           0       -2.141597   -1.985891    0.840507
     19          1           0        0.315693    1.995203   -0.838189
     20          1           0        0.315745   -1.995465    0.837475
     21          1           0       -6.466484   -2.093156   -0.514265
     22          6           0        1.942874   -0.000086   -0.000402
     23          6           0        3.143323   -0.702637    0.003392
     24          6           0        3.143127    0.702801   -0.003915
     25          7           0        3.787080   -1.855019   -0.001668
     26          7           0        3.786774    1.855252    0.001097
     27          6           0        3.068411   -3.122520   -0.167733
     28          1           0        3.187886   -3.748580    0.728596
     29          1           0        2.005788   -2.927607   -0.341041
     30          1           0        3.471162   -3.663551   -1.036238
     31          6           0        5.245121   -1.944160    0.100275
     32          1           0        5.509149   -2.713998    0.838669
     33          1           0        5.688951   -2.217262   -0.869111
     34          1           0        5.659251   -0.989594    0.439085
     35          6           0        3.068047    3.122616    0.168130
     36          1           0        3.188116    3.749602   -0.727455
     37          1           0        2.005304    2.927538    0.340531
     38          1           0        3.470192    3.662707    1.037509
     39          6           0        5.244950    1.944232   -0.099391
     40          1           0        5.509538    2.718440   -0.832954
     41          1           0        5.688631    2.211256    0.871774
     42          1           0        5.658779    0.991638   -0.444142
 ---------------------------------------------------------------------

 SCF Done:  E(RLC-wHPBE) =  -845.348500815     A.U. after   16 cycles

 The electronic state is 1-A.
 Alpha  occ. eigenvalues --  -14.29034 -14.29033 -10.21633 -10.21600 -10.17969
 Alpha  occ. eigenvalues --  -10.16006 -10.16005 -10.15600 -10.15600 -10.13718
 Alpha  occ. eigenvalues --  -10.11944 -10.11853 -10.11852 -10.10537 -10.10535
 Alpha  occ. eigenvalues --  -10.09294 -10.07896 -10.07894 -10.07335 -10.07323
 Alpha  occ. eigenvalues --  -10.07272  -1.16135  -1.13682  -1.08098  -1.01271
 Alpha  occ. eigenvalues --   -0.97430  -0.92884  -0.90874  -0.90682  -0.90153
 Alpha  occ. eigenvalues --   -0.89261  -0.88246  -0.86487  -0.86438  -0.79725
 Alpha  occ. eigenvalues --   -0.77460  -0.73695  -0.73686  -0.72567  -0.72391
 Alpha  occ. eigenvalues --   -0.71896  -0.68555  -0.68097  -0.67436  -0.66196
 Alpha  occ. eigenvalues --   -0.66170  -0.63517  -0.62458  -0.60991  -0.60768
 Alpha  occ. eigenvalues --   -0.60556  -0.59643  -0.59185  -0.59020  -0.58811
 Alpha  occ. eigenvalues --   -0.58225  -0.58220  -0.57763  -0.57157  -0.56840
 Alpha  occ. eigenvalues --   -0.55314  -0.55293  -0.54238  -0.52430  -0.51705
 Alpha  occ. eigenvalues --   -0.50748  -0.49115  -0.48022  -0.47461  -0.46165
 Alpha  occ. eigenvalues --   -0.43560  -0.41596  -0.39960  -0.37922
 Alpha virt. eigenvalues --   -0.13067  -0.07729  -0.05619  -0.05389  -0.04479
 Alpha virt. eigenvalues --   -0.04124  -0.01585  -0.01186  -0.00428   0.00517
 Alpha virt. eigenvalues --    0.00688   0.01615   0.02660   0.03143   0.03485

 Mulliken charges:
               1
     1  C   -0.091027
     2  C   -0.115127
     3  C   -0.117619
     4  C   -0.091025
     5  C   -0.003741
     6  C   -0.117622
     7  H    0.129731
     8  H    0.136659
     9  H    0.123638
    10  H    0.136659
    11  C    0.017394
    12  C   -0.155613
    13  C   -0.155618
    14  C   -0.099026
    15  C   -0.099059
    16  C    0.175347
    17  H    0.155294
    18  H    0.155287
    19  H    0.136293
    20  H    0.136253
    21  H    0.123638
    22  C   -0.466415
    23  C    0.050360
    24  C    0.050401
    25  N    0.013121
    26  N    0.013081
    27  C   -0.241976
    28  H    0.169537
    29  H    0.150908
    30  H    0.165049
    31  C   -0.245490
    32  H    0.166424
    33  H    0.174804
    34  H    0.140211
    35  C   -0.242097
    36  H    0.169600
    37  H    0.150827
    38  H    0.165122
    39  C   -0.246164
    40  H    0.166477
    41  H    0.174951
    42  H    0.140555
 Sum of Mulliken charges =   1.00000

 Dipole moment (field-independent basis, Debye):
    X=             11.6204    Y=              0.0004    Z=              0.0017  Tot=             11.6204
 Quadrupole moment (field-independent basis, Debye-Ang):
   XX=            -23.5513   YY=            -84.6006   ZZ=           -126.1167
   XY=              0.0018   XZ=              0.0059   YZ=             -0.3062

 Normal termination of Gaussian 16 at Thu Jan 21 03:12:05 2021.
