 Gaussian 16, Revision A.03,
 Gaussian 16:  EM64L-G16RevA.03 25-Dec-2016

 ----------------------------------------------------------------------
 #P LC-wHPBE/TZVP iop(3/107=0208400000, 3/108=0208400000) scf=(conver=6
 ,fermi,ndamp=35,noincfock,novaracc,vshift=500,xqc)
 ----------------------------------------------------------------------

 ----------
 H21 C19 N2
 ----------
 Symbolic Z-matrix:
 Charge =  2 Multiplicity = 2

                         Standard orientation:
 ---------------------------------------------------------------------
 Center     Atomic      Atomic             Coordinates (Angstroms)
 Number     Number       Type             X           Y           Z
 ---------------------------------------------------------------------
      1          6           0       -5.924302   -1.175178   -0.282560
      2          6           0       -6.625626    0.000025    0.000251
      3          6           0       -4.530324   -1.177472   -0.278212
      4          6           0       -5.924206    1.175202    0.282951
      5          6           0       -3.810936   -0.000036    0.000021
      6          6           0       -4.530233    1.177435    0.278371
      7          1           0       -7.716547    0.000056    0.000331
      8          1           0       -3.994064   -2.094974   -0.527939
      9          1           0       -6.466302    2.093210    0.514746
     10          1           0       -3.993880    2.094904    0.528010
     11          6           0       -2.333716   -0.000062   -0.000109
     12          6           0       -1.604784    1.119278   -0.452707
     13          6           0       -1.604752   -1.119433    0.452341
     14          6           0       -0.216850    1.125770   -0.449243
     15          6           0       -0.216813   -1.125977    0.448670
     16          6           0        0.504919   -0.000106   -0.000309
     17          1           0       -2.141671    1.985727   -0.840835
     18          1           0       -2.141597   -1.985891    0.840507
     19          1           0        0.315693    1.995203   -0.838189
     20          1           0        0.315745   -1.995465    0.837475
     21          1           0       -6.466484   -2.093156   -0.514265
     22          6           0        1.942874   -0.000086   -0.000402
     23          6           0        3.143323   -0.702637    0.003392
     24          6           0        3.143127    0.702801   -0.003915
     25          7           0        3.787080   -1.855019   -0.001668
     26          7           0        3.786774    1.855252    0.001097
     27          6           0        3.068411   -3.122520   -0.167733
     28          1           0        3.187886   -3.748580    0.728596
     29          1           0        2.005788   -2.927607   -0.341041
     30          1           0        3.471162   -3.663551   -1.036238
     31          6           0        5.245121   -1.944160    0.100275
     32          1           0        5.509149   -2.713998    0.838669
     33          1           0        5.688951   -2.217262   -0.869111
     34          1           0        5.659251   -0.989594    0.439085
     35          6           0        3.068047    3.122616    0.168130
     36          1           0        3.188116    3.749602   -0.727455
     37          1           0        2.005304    2.927538    0.340531
     38          1           0        3.470192    3.662707    1.037509
     39          6           0        5.244950    1.944232   -0.099391
     40          1           0        5.509538    2.718440   -0.832954
     41          1           0        5.688631    2.211256    0.871774
     42          1           0        5.658779    0.991638   -0.444142
 ---------------------------------------------------------------------

 SCF Done:  E(ULC-wHPBE) =  -844.991051138     A.U. after   33 cycles
 SCF Done:  E(ULC-wHPBE) =  -844.991061578     a.u. after    2 cycles

 The electronic state is 2-A.
 Alpha  occ. eigenvalues --  -14.41833 -14.41831 -10.34582 -10.34549 -10.30663
 Alpha  occ. eigenvalues --  -10.30111 -10.28870 -10.28348 -10.26765 -10.26762
 Alpha  occ. eigenvalues --  -10.26706 -10.26706 -10.26643 -10.26643 -10.26398
 Alpha  occ. eigenvalues --  -10.26397 -10.25696 -10.25324 -10.25323 -10.23977
 Alpha  occ. eigenvalues --  -10.23975  -1.28697  -1.25894  -1.20861  -1.17524
 Alpha  occ. eigenvalues --   -1.14791  -1.09244  -1.05621  -1.03832  -1.03308
 Alpha  occ. eigenvalues --   -1.01960  -1.01615  -1.00812  -0.99579  -0.95336
 Alpha  occ. eigenvalues --   -0.93030  -0.89349  -0.88889  -0.86729  -0.84707
 Alpha  occ. eigenvalues --   -0.84438  -0.82600  -0.79985  -0.79932  -0.79437
 Alpha  occ. eigenvalues --   -0.77864  -0.77861  -0.77277  -0.75117  -0.74842
 Alpha  occ. eigenvalues --   -0.73661  -0.73347  -0.73004  -0.71679  -0.71268
 Alpha  occ. eigenvalues --   -0.71157  -0.70445  -0.69734  -0.69416  -0.69264
 Alpha  occ. eigenvalues --   -0.68840  -0.68672  -0.68121  -0.67382  -0.66430
 Alpha  occ. eigenvalues --   -0.65632  -0.64138  -0.63498  -0.61578  -0.60549
 Alpha  occ. eigenvalues --   -0.58262  -0.56664  -0.56173  -0.52684
 Alpha virt. eigenvalues --   -0.26193  -0.21045  -0.19762  -0.18872  -0.16207
 Alpha virt. eigenvalues --   -0.14497  -0.13744  -0.10047  -0.09819  -0.08706
 Alpha virt. eigenvalues --   -0.08548  -0.07976  -0.07400  -0.06812  -0.06649

  Beta  occ. eigenvalues --  -14.41677 -14.41676 -10.34569 -10.34536 -10.30732
  Beta  occ. eigenvalues --  -10.29851 -10.28780 -10.28097 -10.26788 -10.26787
  Beta  occ. eigenvalues --  -10.26647 -10.26647 -10.26614 -10.26613 -10.26403
  Beta  occ. eigenvalues --  -10.26402 -10.25326 -10.25198 -10.25196 -10.24024
  Beta  occ. eigenvalues --  -10.24023  -1.28525  -1.25676  -1.20669  -1.17141
  Beta  occ. eigenvalues --   -1.14329  -1.08764  -1.05508  -1.03150  -1.03113
  Beta  occ. eigenvalues --   -1.01872  -1.01580  -1.00778  -0.99510  -0.95106
  Beta  occ. eigenvalues --   -0.92823  -0.89040  -0.88581  -0.86608  -0.84608
  Beta  occ. eigenvalues --   -0.84346  -0.82480  -0.79838  -0.79750  -0.79311
  Beta  occ. eigenvalues --   -0.77735  -0.77704  -0.77001  -0.74752  -0.74653
  Beta  occ. eigenvalues --   -0.73596  -0.73194  -0.72667  -0.71566  -0.71155
  Beta  occ. eigenvalues --   -0.71124  -0.70008  -0.69585  -0.69320  -0.69199
  Beta  occ. eigenvalues --   -0.68817  -0.68265  -0.67372  -0.66835  -0.66338
  Beta  occ. eigenvalues --   -0.65461  -0.64036  -0.63217  -0.59944  -0.59311
  Beta  occ. eigenvalues --   -0.58070  -0.55855  -0.52453
  Beta virt. eigenvalues --   -0.38366  -0.25157  -0.20428  -0.18145  -0.17990
  Beta virt. eigenvalues --   -0.15706  -0.13699  -0.13548  -0.10024  -0.09776
  Beta virt. eigenvalues --   -0.08659  -0.08493  -0.07907  -0.07367  -0.06619

 Mulliken charges and spin densities:
               1          2
     1  C   -0.072872  -0.051358
     2  C   -0.044851   0.297871
     3  C   -0.083132   0.092534
     4  C   -0.072870  -0.051355
     5  C    0.016482   0.201273
     6  C   -0.083137   0.092527
     7  H    0.191785  -0.013840
     8  H    0.185762  -0.005640
     9  H    0.179728   0.001667
    10  H    0.185761  -0.005641
    11  C    0.032856   0.035891
    12  C   -0.119832   0.108514
    13  C   -0.119846   0.108509
    14  C   -0.090508  -0.069885
    15  C   -0.090537  -0.069872
    16  C    0.206937   0.202511
    17  H    0.192234  -0.005601
    18  H    0.192226  -0.005602
    19  H    0.174944   0.002262
    20  H    0.174901   0.002262
    21  H    0.179729   0.001667
    22  C   -0.489266  -0.064296
    23  C    0.068754   0.012993
    24  C    0.068757   0.013001
    25  N    0.039239   0.076372
    26  N    0.039200   0.076375
    27  C   -0.239030  -0.003930
    28  H    0.193750   0.004199
    29  H    0.137489   0.000273
    30  H    0.190015   0.003884
    31  C   -0.246580  -0.003606
    32  H    0.187384   0.003411
    33  H    0.198618   0.004048
    34  H    0.147237   0.000152
    35  C   -0.239138  -0.003926
    36  H    0.193812   0.004191
    37  H    0.137394   0.000274
    38  H    0.190090   0.003892
    39  C   -0.247311  -0.003614
    40  H    0.187410   0.003379
    41  H    0.198790   0.004069
    42  H    0.147627   0.000166
 Sum of Mulliken charges =   2.00000   1.00000

 Dipole moment (field-independent basis, Debye):
    X=              2.8360    Y=              0.0001    Z=              0.0021  Tot=              2.8360
 Quadrupole moment (field-independent basis, Debye-Ang):
   XX=             82.1960   YY=            -66.5842   ZZ=           -120.3698
   XY=              0.0002   XZ=              0.0062   YZ=             -0.2608

 Normal termination of Gaussian 16 at Thu Jan 21 07:18:55 2021.
