 Gaussian 16, Revision A.03,
 Gaussian 16:  EM64L-G16RevA.03 25-Dec-2016

 ----------------------------------------------------------------------
 #P LC-wHPBE/TZVP iop(3/107=0211700000, 3/108=0211700000) scf=(conver=6
 ,fermi,ndamp=35,noincfock,novaracc,vshift=500,xqc)
 ----------------------------------------------------------------------

 ----------
 H21 C19 N2
 ----------
 Symbolic Z-matrix:
 Charge =  2 Multiplicity = 2

                         Standard orientation:
 ---------------------------------------------------------------------
 Center     Atomic      Atomic             Coordinates (Angstroms)
 Number     Number       Type             X           Y           Z
 ---------------------------------------------------------------------
      1          6           0       -5.924302   -1.175178   -0.282560
      2          6           0       -6.625626    0.000025    0.000251
      3          6           0       -4.530324   -1.177472   -0.278212
      4          6           0       -5.924206    1.175202    0.282951
      5          6           0       -3.810936   -0.000036    0.000021
      6          6           0       -4.530233    1.177435    0.278371
      7          1           0       -7.716547    0.000056    0.000331
      8          1           0       -3.994064   -2.094974   -0.527939
      9          1           0       -6.466302    2.093210    0.514746
     10          1           0       -3.993880    2.094904    0.528010
     11          6           0       -2.333716   -0.000062   -0.000109
     12          6           0       -1.604784    1.119278   -0.452707
     13          6           0       -1.604752   -1.119433    0.452341
     14          6           0       -0.216850    1.125770   -0.449243
     15          6           0       -0.216813   -1.125977    0.448670
     16          6           0        0.504919   -0.000106   -0.000309
     17          1           0       -2.141671    1.985727   -0.840835
     18          1           0       -2.141597   -1.985891    0.840507
     19          1           0        0.315693    1.995203   -0.838189
     20          1           0        0.315745   -1.995465    0.837475
     21          1           0       -6.466484   -2.093156   -0.514265
     22          6           0        1.942874   -0.000086   -0.000402
     23          6           0        3.143323   -0.702637    0.003392
     24          6           0        3.143127    0.702801   -0.003915
     25          7           0        3.787080   -1.855019   -0.001668
     26          7           0        3.786774    1.855252    0.001097
     27          6           0        3.068411   -3.122520   -0.167733
     28          1           0        3.187886   -3.748580    0.728596
     29          1           0        2.005788   -2.927607   -0.341041
     30          1           0        3.471162   -3.663551   -1.036238
     31          6           0        5.245121   -1.944160    0.100275
     32          1           0        5.509149   -2.713998    0.838669
     33          1           0        5.688951   -2.217262   -0.869111
     34          1           0        5.659251   -0.989594    0.439085
     35          6           0        3.068047    3.122616    0.168130
     36          1           0        3.188116    3.749602   -0.727455
     37          1           0        2.005304    2.927538    0.340531
     38          1           0        3.470192    3.662707    1.037509
     39          6           0        5.244950    1.944232   -0.099391
     40          1           0        5.509538    2.718440   -0.832954
     41          1           0        5.688631    2.211256    0.871774
     42          1           0        5.658779    0.991638   -0.444142
 ---------------------------------------------------------------------

 SCF Done:  E(ULC-wHPBE) =  -844.994813739     A.U. after   33 cycles
 SCF Done:  E(ULC-wHPBE) =  -844.994824551     a.u. after    2 cycles

 The electronic state is 2-A.
 Alpha  occ. eigenvalues --  -14.41979 -14.41978 -10.34762 -10.34728 -10.30829
 Alpha  occ. eigenvalues --  -10.30301 -10.29066 -10.28580 -10.26961 -10.26959
 Alpha  occ. eigenvalues --  -10.26891 -10.26891 -10.26807 -10.26807 -10.26560
 Alpha  occ. eigenvalues --  -10.26559 -10.25927 -10.25545 -10.25544 -10.24192
 Alpha  occ. eigenvalues --  -10.24191  -1.28870  -1.26058  -1.21028  -1.17734
 Alpha  occ. eigenvalues --   -1.15014  -1.09449  -1.05813  -1.04040  -1.03525
 Alpha  occ. eigenvalues --   -1.02122  -1.01773  -1.00966  -0.99731  -0.95516
 Alpha  occ. eigenvalues --   -0.93210  -0.89542  -0.89075  -0.86891  -0.84840
 Alpha  occ. eigenvalues --   -0.84575  -0.82774  -0.80125  -0.80065  -0.79576
 Alpha  occ. eigenvalues --   -0.78027  -0.77996  -0.77405  -0.75287  -0.74990
 Alpha  occ. eigenvalues --   -0.73805  -0.73513  -0.73139  -0.71810  -0.71420
 Alpha  occ. eigenvalues --   -0.71275  -0.70591  -0.69874  -0.69532  -0.69379
 Alpha  occ. eigenvalues --   -0.68950  -0.68819  -0.68255  -0.67493  -0.66546
 Alpha  occ. eigenvalues --   -0.65760  -0.64288  -0.63647  -0.61697  -0.60644
 Alpha  occ. eigenvalues --   -0.58361  -0.56781  -0.56297  -0.52751
 Alpha virt. eigenvalues --   -0.26135  -0.20971  -0.19705  -0.18823  -0.16097
 Alpha virt. eigenvalues --   -0.14405  -0.13650  -0.09961  -0.09740  -0.08600
 Alpha virt. eigenvalues --   -0.08452  -0.07912  -0.07314  -0.06711  -0.06554

  Beta  occ. eigenvalues --  -14.41825 -14.41824 -10.34749 -10.34716 -10.30900
  Beta  occ. eigenvalues --  -10.30039 -10.28977 -10.28327 -10.26973 -10.26972
  Beta  occ. eigenvalues --  -10.26812 -10.26812 -10.26810 -10.26809 -10.26564
  Beta  occ. eigenvalues --  -10.26563 -10.25553 -10.25418 -10.25416 -10.24241
  Beta  occ. eigenvalues --  -10.24240  -1.28700  -1.25842  -1.20838  -1.17349
  Beta  occ. eigenvalues --   -1.14550  -1.08965  -1.05701  -1.03367  -1.03310
  Beta  occ. eigenvalues --   -1.02036  -1.01738  -1.00932  -0.99662  -0.95287
  Beta  occ. eigenvalues --   -0.93003  -0.89231  -0.88766  -0.86770  -0.84742
  Beta  occ. eigenvalues --   -0.84483  -0.82653  -0.79972  -0.79892  -0.79448
  Beta  occ. eigenvalues --   -0.77869  -0.77868  -0.77130  -0.74919  -0.74800
  Beta  occ. eigenvalues --   -0.73740  -0.73360  -0.72797  -0.71691  -0.71314
  Beta  occ. eigenvalues --   -0.71242  -0.70142  -0.69726  -0.69437  -0.69314
  Beta  occ. eigenvalues --   -0.68927  -0.68388  -0.67483  -0.66968  -0.66453
  Beta  occ. eigenvalues --   -0.65589  -0.64186  -0.63366  -0.60040  -0.59393
  Beta  occ. eigenvalues --   -0.58170  -0.55983  -0.52520
  Beta virt. eigenvalues --   -0.38336  -0.25094  -0.20347  -0.18068  -0.17926
  Beta virt. eigenvalues --   -0.15594  -0.13606  -0.13450  -0.09938  -0.09696
  Beta virt. eigenvalues --   -0.08553  -0.08397  -0.07843  -0.07280  -0.06523

 Mulliken charges and spin densities:
               1          2
     1  C   -0.073212  -0.052613
     2  C   -0.044675   0.300428
     3  C   -0.083414   0.093387
     4  C   -0.073209  -0.052610
     5  C    0.016778   0.202606
     6  C   -0.083419   0.093381
     7  H    0.192248  -0.013943
     8  H    0.186304  -0.005687
     9  H    0.180186   0.001711
    10  H    0.186303  -0.005688
    11  C    0.032482   0.034259
    12  C   -0.119942   0.110034
    13  C   -0.119955   0.110030
    14  C   -0.090787  -0.071550
    15  C   -0.090817  -0.071537
    16  C    0.206565   0.203818
    17  H    0.192604  -0.005667
    18  H    0.192596  -0.005668
    19  H    0.175378   0.002328
    20  H    0.175335   0.002329
    21  H    0.180187   0.001711
    22  C   -0.489178  -0.065279
    23  C    0.068801   0.013273
    24  C    0.068805   0.013281
    25  N    0.038669   0.075594
    26  N    0.038629   0.075597
    27  C   -0.238683  -0.003929
    28  H    0.193608   0.004144
    29  H    0.137213   0.000278
    30  H    0.189855   0.003835
    31  C   -0.246259  -0.003596
    32  H    0.187214   0.003367
    33  H    0.198476   0.003990
    34  H    0.147048   0.000150
    35  C   -0.238791  -0.003926
    36  H    0.193670   0.004135
    37  H    0.137118   0.000278
    38  H    0.189930   0.003843
    39  C   -0.246990  -0.003603
    40  H    0.187240   0.003335
    41  H    0.198648   0.004010
    42  H    0.147439   0.000164
 Sum of Mulliken charges =   2.00000   1.00000

 Dipole moment (field-independent basis, Debye):
    X=              2.7584    Y=              0.0001    Z=              0.0021  Tot=              2.7584
 Quadrupole moment (field-independent basis, Debye-Ang):
   XX=             82.3171   YY=            -66.6196   ZZ=           -120.3654
   XY=              0.0002   XZ=              0.0062   YZ=             -0.2615

 Normal termination of Gaussian 16 at Thu Jan 21 05:30:20 2021.
