 Gaussian 16, Revision A.03,
 Gaussian 16:  EM64L-G16RevA.03 25-Dec-2016

 ----------------------------------------------------------------------
 #P LC-wHPBE/TZVP iop(3/107=0207400000, 3/108=0207400000) scf=(conver=6
 ,fermi,ndamp=35,noincfock,novaracc,vshift=500,xqc)
 ----------------------------------------------------------------------

 ----------
 H21 C19 N2
 ----------
 Symbolic Z-matrix:
 Charge =  1 Multiplicity = 1

                         Standard orientation:
 ---------------------------------------------------------------------
 Center     Atomic      Atomic             Coordinates (Angstroms)
 Number     Number       Type             X           Y           Z
 ---------------------------------------------------------------------
      1          6           0       -5.924302   -1.175178   -0.282560
      2          6           0       -6.625626    0.000025    0.000251
      3          6           0       -4.530324   -1.177472   -0.278212
      4          6           0       -5.924206    1.175202    0.282951
      5          6           0       -3.810936   -0.000036    0.000021
      6          6           0       -4.530233    1.177435    0.278371
      7          1           0       -7.716547    0.000056    0.000331
      8          1           0       -3.994064   -2.094974   -0.527939
      9          1           0       -6.466302    2.093210    0.514746
     10          1           0       -3.993880    2.094904    0.528010
     11          6           0       -2.333716   -0.000062   -0.000109
     12          6           0       -1.604784    1.119278   -0.452707
     13          6           0       -1.604752   -1.119433    0.452341
     14          6           0       -0.216850    1.125770   -0.449243
     15          6           0       -0.216813   -1.125977    0.448670
     16          6           0        0.504919   -0.000106   -0.000309
     17          1           0       -2.141671    1.985727   -0.840835
     18          1           0       -2.141597   -1.985891    0.840507
     19          1           0        0.315693    1.995203   -0.838189
     20          1           0        0.315745   -1.995465    0.837475
     21          1           0       -6.466484   -2.093156   -0.514265
     22          6           0        1.942874   -0.000086   -0.000402
     23          6           0        3.143323   -0.702637    0.003392
     24          6           0        3.143127    0.702801   -0.003915
     25          7           0        3.787080   -1.855019   -0.001668
     26          7           0        3.786774    1.855252    0.001097
     27          6           0        3.068411   -3.122520   -0.167733
     28          1           0        3.187886   -3.748580    0.728596
     29          1           0        2.005788   -2.927607   -0.341041
     30          1           0        3.471162   -3.663551   -1.036238
     31          6           0        5.245121   -1.944160    0.100275
     32          1           0        5.509149   -2.713998    0.838669
     33          1           0        5.688951   -2.217262   -0.869111
     34          1           0        5.659251   -0.989594    0.439085
     35          6           0        3.068047    3.122616    0.168130
     36          1           0        3.188116    3.749602   -0.727455
     37          1           0        2.005304    2.927538    0.340531
     38          1           0        3.470192    3.662707    1.037509
     39          6           0        5.244950    1.944232   -0.099391
     40          1           0        5.509538    2.718440   -0.832954
     41          1           0        5.688631    2.211256    0.871774
     42          1           0        5.658779    0.991638   -0.444142
 ---------------------------------------------------------------------

 SCF Done:  E(RLC-wHPBE) =  -845.374535178     A.U. after   16 cycles

 The electronic state is 1-A.
 Alpha  occ. eigenvalues --  -14.30194 -14.30193 -10.22946 -10.22913 -10.19240
 Alpha  occ. eigenvalues --  -10.17193 -10.17191 -10.16786 -10.16786 -10.14920
 Alpha  occ. eigenvalues --  -10.13143 -10.13058 -10.13057 -10.11720 -10.11718
 Alpha  occ. eigenvalues --  -10.10459 -10.09059 -10.09057 -10.08492 -10.08481
 Alpha  occ. eigenvalues --  -10.08429  -1.17425  -1.14925  -1.09353  -1.02539
 Alpha  occ. eigenvalues --   -0.98669  -0.94106  -0.92065  -0.91871  -0.91355
 Alpha  occ. eigenvalues --   -0.90422  -0.89396  -0.87661  -0.87601  -0.80840
 Alpha  occ. eigenvalues --   -0.78569  -0.74734  -0.74715  -0.73613  -0.73422
 Alpha  occ. eigenvalues --   -0.72954  -0.69542  -0.69163  -0.68390  -0.67199
 Alpha  occ. eigenvalues --   -0.67173  -0.64473  -0.63428  -0.61918  -0.61735
 Alpha  occ. eigenvalues --   -0.61485  -0.60555  -0.60091  -0.59922  -0.59720
 Alpha  occ. eigenvalues --   -0.59133  -0.59122  -0.58657  -0.58058  -0.57718
 Alpha  occ. eigenvalues --   -0.56204  -0.56158  -0.55147  -0.53263  -0.52619
 Alpha  occ. eigenvalues --   -0.51579  -0.49932  -0.48813  -0.48242  -0.46885
 Alpha  occ. eigenvalues --   -0.44218  -0.42204  -0.40581  -0.38454
 Alpha virt. eigenvalues --   -0.12660  -0.07210  -0.05062  -0.04855  -0.03976
 Alpha virt. eigenvalues --   -0.03580  -0.01094  -0.00602   0.00104   0.01038
 Alpha virt. eigenvalues --    0.01268   0.02156   0.03249   0.03736   0.04016

 Mulliken charges:
               1
     1  C   -0.092816
     2  C   -0.117776
     3  C   -0.120703
     4  C   -0.092814
     5  C   -0.001962
     6  C   -0.120707
     7  H    0.131587
     8  H    0.138907
     9  H    0.125553
    10  H    0.138908
    11  C    0.014530
    12  C   -0.157418
    13  C   -0.157424
    14  C   -0.099637
    15  C   -0.099670
    16  C    0.171661
    17  H    0.157817
    18  H    0.157810
    19  H    0.138698
    20  H    0.138658
    21  H    0.125553
    22  C   -0.463044
    23  C    0.050192
    24  C    0.050238
    25  N    0.010940
    26  N    0.010893
    27  C   -0.239176
    28  H    0.169191
    29  H    0.149812
    30  H    0.164517
    31  C   -0.242754
    32  H    0.165905
    33  H    0.174481
    34  H    0.139131
    35  C   -0.239294
    36  H    0.169254
    37  H    0.149730
    38  H    0.164590
    39  C   -0.243434
    40  H    0.165958
    41  H    0.174630
    42  H    0.139483
 Sum of Mulliken charges =   1.00000

 Dipole moment (field-independent basis, Debye):
    X=             11.6686    Y=              0.0004    Z=              0.0017  Tot=             11.6686
 Quadrupole moment (field-independent basis, Debye-Ang):
   XX=            -23.6473   YY=            -84.5189   ZZ=           -126.0719
   XY=              0.0018   XZ=              0.0060   YZ=             -0.3161

 Normal termination of Gaussian 16 at Thu Jan 21 06:14:06 2021.
