 Gaussian 16, Revision A.03,
 Gaussian 16:  EM64L-G16RevA.03 25-Dec-2016

 ----------------------------------------------------------------------
 #P LC-wHPBE/TZVP iop(3/107=0221900000, 3/108=0221900000) scf=(conver=6
 ,fermi,ndamp=35,noincfock,novaracc,vshift=500,xqc)
 ----------------------------------------------------------------------

 ----------
 H21 C19 N2
 ----------
 Symbolic Z-matrix:
 Charge =  2 Multiplicity = 2

                         Standard orientation:
 ---------------------------------------------------------------------
 Center     Atomic      Atomic             Coordinates (Angstroms)
 Number     Number       Type             X           Y           Z
 ---------------------------------------------------------------------
      1          6           0       -5.924302   -1.175178   -0.282560
      2          6           0       -6.625626    0.000025    0.000251
      3          6           0       -4.530324   -1.177472   -0.278212
      4          6           0       -5.924206    1.175202    0.282951
      5          6           0       -3.810936   -0.000036    0.000021
      6          6           0       -4.530233    1.177435    0.278371
      7          1           0       -7.716547    0.000056    0.000331
      8          1           0       -3.994064   -2.094974   -0.527939
      9          1           0       -6.466302    2.093210    0.514746
     10          1           0       -3.993880    2.094904    0.528010
     11          6           0       -2.333716   -0.000062   -0.000109
     12          6           0       -1.604784    1.119278   -0.452707
     13          6           0       -1.604752   -1.119433    0.452341
     14          6           0       -0.216850    1.125770   -0.449243
     15          6           0       -0.216813   -1.125977    0.448670
     16          6           0        0.504919   -0.000106   -0.000309
     17          1           0       -2.141671    1.985727   -0.840835
     18          1           0       -2.141597   -1.985891    0.840507
     19          1           0        0.315693    1.995203   -0.838189
     20          1           0        0.315745   -1.995465    0.837475
     21          1           0       -6.466484   -2.093156   -0.514265
     22          6           0        1.942874   -0.000086   -0.000402
     23          6           0        3.143323   -0.702637    0.003392
     24          6           0        3.143127    0.702801   -0.003915
     25          7           0        3.787080   -1.855019   -0.001668
     26          7           0        3.786774    1.855252    0.001097
     27          6           0        3.068411   -3.122520   -0.167733
     28          1           0        3.187886   -3.748580    0.728596
     29          1           0        2.005788   -2.927607   -0.341041
     30          1           0        3.471162   -3.663551   -1.036238
     31          6           0        5.245121   -1.944160    0.100275
     32          1           0        5.509149   -2.713998    0.838669
     33          1           0        5.688951   -2.217262   -0.869111
     34          1           0        5.659251   -0.989594    0.439085
     35          6           0        3.068047    3.122616    0.168130
     36          1           0        3.188116    3.749602   -0.727455
     37          1           0        2.005304    2.927538    0.340531
     38          1           0        3.470192    3.662707    1.037509
     39          6           0        5.244950    1.944232   -0.099391
     40          1           0        5.509538    2.718440   -0.832954
     41          1           0        5.688631    2.211256    0.871774
     42          1           0        5.658779    0.991638   -0.444142
 ---------------------------------------------------------------------

 SCF Done:  E(ULC-wHPBE) =  -845.006314330     A.U. after   33 cycles
 SCF Done:  E(ULC-wHPBE) =  -845.006326552     a.u. after    2 cycles

 The electronic state is 2-A.
 Alpha  occ. eigenvalues --  -14.42435 -14.42433 -10.35320 -10.35287 -10.31346
 Alpha  occ. eigenvalues --  -10.30885 -10.29668 -10.29294 -10.27567 -10.27565
 Alpha  occ. eigenvalues --  -10.27458 -10.27458 -10.27317 -10.27317 -10.27061
 Alpha  occ. eigenvalues --  -10.27060 -10.26638 -10.26225 -10.26223 -10.24857
 Alpha  occ. eigenvalues --  -10.24856  -1.29408  -1.26566  -1.21546  -1.18382
 Alpha  occ. eigenvalues --   -1.15701  -1.10078  -1.06404  -1.04681  -1.04190
 Alpha  occ. eigenvalues --   -1.02622  -1.02261  -1.01440  -1.00196  -0.96069
 Alpha  occ. eigenvalues --   -0.93761  -0.90130  -0.89644  -0.87384  -0.85248
 Alpha  occ. eigenvalues --   -0.84994  -0.83303  -0.80553  -0.80472  -0.80000
 Alpha  occ. eigenvalues --   -0.78530  -0.78397  -0.77796  -0.75804  -0.75439
 Alpha  occ. eigenvalues --   -0.74242  -0.74019  -0.73550  -0.72216  -0.71871
 Alpha  occ. eigenvalues --   -0.71633  -0.71035  -0.70301  -0.69886  -0.69727
 Alpha  occ. eigenvalues --   -0.69285  -0.69271  -0.68649  -0.67831  -0.66896
 Alpha  occ. eigenvalues --   -0.66146  -0.64742  -0.64099  -0.62055  -0.60928
 Alpha  occ. eigenvalues --   -0.58655  -0.57134  -0.56672  -0.52951
 Alpha virt. eigenvalues --   -0.25963  -0.20749  -0.19539  -0.18680  -0.15767
 Alpha virt. eigenvalues --   -0.14129  -0.13373  -0.09705  -0.09505  -0.08286
 Alpha virt. eigenvalues --   -0.08164  -0.07723  -0.07059  -0.06406  -0.06272

  Beta  occ. eigenvalues --  -14.42285 -14.42284 -10.35306 -10.35273 -10.31421
  Beta  occ. eigenvalues --  -10.30619 -10.29584 -10.29036 -10.27545 -10.27543
  Beta  occ. eigenvalues --  -10.27413 -10.27411 -10.27321 -10.27321 -10.27066
  Beta  occ. eigenvalues --  -10.27065 -10.26256 -10.26095 -10.26093 -10.24911
  Beta  occ. eigenvalues --  -10.24909  -1.29243  -1.26357  -1.21359  -1.17989
  Beta  occ. eigenvalues --   -1.15229  -1.09585  -1.06291  -1.04033  -1.03914
  Beta  occ. eigenvalues --   -1.02540  -1.02227  -1.01408  -1.00130  -0.95837
  Beta  occ. eigenvalues --   -0.93554  -0.89812  -0.89329  -0.87262  -0.85151
  Beta  occ. eigenvalues --   -0.84903  -0.83180  -0.80377  -0.80327  -0.79868
  Beta  occ. eigenvalues --   -0.78372  -0.78272  -0.77523  -0.75424  -0.75247
  Beta  occ. eigenvalues --   -0.74176  -0.73863  -0.73190  -0.72075  -0.71791
  Beta  occ. eigenvalues --   -0.71600  -0.70546  -0.70151  -0.69791  -0.69663
  Beta  occ. eigenvalues --   -0.69263  -0.68759  -0.67823  -0.67363  -0.66802
  Beta  occ. eigenvalues --   -0.65976  -0.64641  -0.63817  -0.60330  -0.59639
  Beta  occ. eigenvalues --   -0.58470  -0.56366  -0.52725
  Beta virt. eigenvalues --   -0.38245  -0.24908  -0.20105  -0.17839  -0.17735
  Beta virt. eigenvalues --   -0.15259  -0.13330  -0.13156  -0.09684  -0.09461
  Beta virt. eigenvalues --   -0.08238  -0.08111  -0.07654  -0.07022  -0.06240

 Mulliken charges and spin densities:
               1          2
     1  C   -0.074318  -0.056561
     2  C   -0.044143   0.308441
     3  C   -0.084343   0.095991
     4  C   -0.074315  -0.056558
     5  C    0.017662   0.206767
     6  C   -0.084348   0.095984
     7  H    0.193720  -0.014260
     8  H    0.188023  -0.005831
     9  H    0.181647   0.001852
    10  H    0.188022  -0.005832
    11  C    0.031273   0.028936
    12  C   -0.120323   0.114803
    13  C   -0.120337   0.114799
    14  C   -0.091711  -0.076775
    15  C   -0.091741  -0.076763
    16  C    0.205511   0.207823
    17  H    0.193786  -0.005873
    18  H    0.193778  -0.005874
    19  H    0.176763   0.002537
    20  H    0.176720   0.002537
    21  H    0.181648   0.001852
    22  C   -0.488772  -0.068168
    23  C    0.068965   0.014124
    24  C    0.068972   0.014132
    25  N    0.036800   0.073287
    26  N    0.036756   0.073290
    27  C   -0.237709  -0.003926
    28  H    0.193214   0.003979
    29  H    0.136404   0.000293
    30  H    0.189401   0.003691
    31  C   -0.245356  -0.003563
    32  H    0.186728   0.003238
    33  H    0.198085   0.003818
    34  H    0.146491   0.000144
    35  C   -0.237815  -0.003923
    36  H    0.193276   0.003971
    37  H    0.136308   0.000293
    38  H    0.189475   0.003699
    39  C   -0.246090  -0.003571
    40  H    0.186753   0.003207
    41  H    0.198256   0.003837
    42  H    0.146885   0.000157
 Sum of Mulliken charges =   2.00000   1.00000

 Dipole moment (field-independent basis, Debye):
    X=              2.5240    Y=              0.0001    Z=              0.0021  Tot=              2.5240
 Quadrupole moment (field-independent basis, Debye-Ang):
   XX=             82.6991   YY=            -66.7242   ZZ=           -120.3520
   XY=              0.0003   XZ=              0.0061   YZ=             -0.2634

 Normal termination of Gaussian 16 at Thu Jan 21 00:40:08 2021.
