 Gaussian 16, Revision A.03,
 Gaussian 16:  EM64L-G16RevA.03 25-Dec-2016

 ----------------------------------------------------------------------
 #P LC-wHPBE/TZVP iop(3/107=0208900000, 3/108=0208900000) scf=(conver=6
 ,fermi,ndamp=35,noincfock,novaracc,vshift=500,xqc)
 ----------------------------------------------------------------------

 ----------
 H21 C19 N2
 ----------
 Symbolic Z-matrix:
 Charge =  2 Multiplicity = 2

                         Standard orientation:
 ---------------------------------------------------------------------
 Center     Atomic      Atomic             Coordinates (Angstroms)
 Number     Number       Type             X           Y           Z
 ---------------------------------------------------------------------
      1          6           0       -5.924302   -1.175178   -0.282560
      2          6           0       -6.625626    0.000025    0.000251
      3          6           0       -4.530324   -1.177472   -0.278212
      4          6           0       -5.924206    1.175202    0.282951
      5          6           0       -3.810936   -0.000036    0.000021
      6          6           0       -4.530233    1.177435    0.278371
      7          1           0       -7.716547    0.000056    0.000331
      8          1           0       -3.994064   -2.094974   -0.527939
      9          1           0       -6.466302    2.093210    0.514746
     10          1           0       -3.993880    2.094904    0.528010
     11          6           0       -2.333716   -0.000062   -0.000109
     12          6           0       -1.604784    1.119278   -0.452707
     13          6           0       -1.604752   -1.119433    0.452341
     14          6           0       -0.216850    1.125770   -0.449243
     15          6           0       -0.216813   -1.125977    0.448670
     16          6           0        0.504919   -0.000106   -0.000309
     17          1           0       -2.141671    1.985727   -0.840835
     18          1           0       -2.141597   -1.985891    0.840507
     19          1           0        0.315693    1.995203   -0.838189
     20          1           0        0.315745   -1.995465    0.837475
     21          1           0       -6.466484   -2.093156   -0.514265
     22          6           0        1.942874   -0.000086   -0.000402
     23          6           0        3.143323   -0.702637    0.003392
     24          6           0        3.143127    0.702801   -0.003915
     25          7           0        3.787080   -1.855019   -0.001668
     26          7           0        3.786774    1.855252    0.001097
     27          6           0        3.068411   -3.122520   -0.167733
     28          1           0        3.187886   -3.748580    0.728596
     29          1           0        2.005788   -2.927607   -0.341041
     30          1           0        3.471162   -3.663551   -1.036238
     31          6           0        5.245121   -1.944160    0.100275
     32          1           0        5.509149   -2.713998    0.838669
     33          1           0        5.688951   -2.217262   -0.869111
     34          1           0        5.659251   -0.989594    0.439085
     35          6           0        3.068047    3.122616    0.168130
     36          1           0        3.188116    3.749602   -0.727455
     37          1           0        2.005304    2.927538    0.340531
     38          1           0        3.470192    3.662707    1.037509
     39          6           0        5.244950    1.944232   -0.099391
     40          1           0        5.509538    2.718440   -0.832954
     41          1           0        5.688631    2.211256    0.871774
     42          1           0        5.658779    0.991638   -0.444142
 ---------------------------------------------------------------------

 SCF Done:  E(ULC-wHPBE) =  -844.991622411     A.U. after   33 cycles
 SCF Done:  E(ULC-wHPBE) =  -844.991632906     a.u. after    2 cycles

 The electronic state is 2-A.
 Alpha  occ. eigenvalues --  -14.41855 -14.41854 -10.34609 -10.34576 -10.30688
 Alpha  occ. eigenvalues --  -10.30139 -10.28900 -10.28383 -10.26795 -10.26792
 Alpha  occ. eigenvalues --  -10.26734 -10.26734 -10.26668 -10.26667 -10.26422
 Alpha  occ. eigenvalues --  -10.26421 -10.25731 -10.25358 -10.25356 -10.24009
 Alpha  occ. eigenvalues --  -10.24008  -1.28723  -1.25919  -1.20886  -1.17556
 Alpha  occ. eigenvalues --   -1.14825  -1.09276  -1.05650  -1.03863  -1.03341
 Alpha  occ. eigenvalues --   -1.01985  -1.01639  -1.00835  -0.99602  -0.95363
 Alpha  occ. eigenvalues --   -0.93057  -0.89378  -0.88918  -0.86754  -0.84727
 Alpha  occ. eigenvalues --   -0.84459  -0.82627  -0.80006  -0.79952  -0.79458
 Alpha  occ. eigenvalues --   -0.77887  -0.77884  -0.77297  -0.75143  -0.74864
 Alpha  occ. eigenvalues --   -0.73683  -0.73372  -0.73024  -0.71699  -0.71291
 Alpha  occ. eigenvalues --   -0.71175  -0.70467  -0.69755  -0.69434  -0.69282
 Alpha  occ. eigenvalues --   -0.68856  -0.68694  -0.68142  -0.67399  -0.66448
 Alpha  occ. eigenvalues --   -0.65651  -0.64160  -0.63521  -0.61596  -0.60564
 Alpha  occ. eigenvalues --   -0.58277  -0.56682  -0.56192  -0.52694
 Alpha virt. eigenvalues --   -0.26184  -0.21034  -0.19753  -0.18864  -0.16190
 Alpha virt. eigenvalues --   -0.14483  -0.13729  -0.10034  -0.09807  -0.08690
 Alpha virt. eigenvalues --   -0.08533  -0.07966  -0.07387  -0.06797  -0.06635

  Beta  occ. eigenvalues --  -14.41700 -14.41698 -10.34596 -10.34564 -10.30758
  Beta  occ. eigenvalues --  -10.29879 -10.28810 -10.28132 -10.26816 -10.26815
  Beta  occ. eigenvalues --  -10.26672 -10.26672 -10.26644 -10.26643 -10.26427
  Beta  occ. eigenvalues --  -10.26426 -10.25360 -10.25232 -10.25230 -10.24057
  Beta  occ. eigenvalues --  -10.24056  -1.28552  -1.25701  -1.20695  -1.17172
  Beta  occ. eigenvalues --   -1.14362  -1.08794  -1.05537  -1.03183  -1.03143
  Beta  occ. eigenvalues --   -1.01897  -1.01604  -1.00801  -0.99533  -0.95134
  Beta  occ. eigenvalues --   -0.92851  -0.89069  -0.88609  -0.86632  -0.84629
  Beta  occ. eigenvalues --   -0.84367  -0.82506  -0.79859  -0.79771  -0.79332
  Beta  occ. eigenvalues --   -0.77755  -0.77729  -0.77021  -0.74777  -0.74675
  Beta  occ. eigenvalues --   -0.73618  -0.73220  -0.72687  -0.71585  -0.71179
  Beta  occ. eigenvalues --   -0.71142  -0.70028  -0.69607  -0.69338  -0.69216
  Beta  occ. eigenvalues --   -0.68833  -0.68284  -0.67389  -0.66855  -0.66356
  Beta  occ. eigenvalues --   -0.65481  -0.64059  -0.63240  -0.59959  -0.59323
  Beta  occ. eigenvalues --   -0.58085  -0.55875  -0.52463
  Beta virt. eigenvalues --   -0.38361  -0.25147  -0.20415  -0.18133  -0.17980
  Beta virt. eigenvalues --   -0.15689  -0.13685  -0.13533  -0.10011  -0.09764
  Beta virt. eigenvalues --   -0.08643  -0.08478  -0.07897  -0.07354  -0.06604

 Mulliken charges and spin densities:
               1          2
     1  C   -0.072923  -0.051547
     2  C   -0.044824   0.298257
     3  C   -0.083175   0.092663
     4  C   -0.072920  -0.051544
     5  C    0.016528   0.201475
     6  C   -0.083179   0.092657
     7  H    0.191855  -0.013856
     8  H    0.185844  -0.005647
     9  H    0.179797   0.001673
    10  H    0.185843  -0.005648
    11  C    0.032800   0.035646
    12  C   -0.119849   0.108743
    13  C   -0.119862   0.108739
    14  C   -0.090549  -0.070136
    15  C   -0.090579  -0.070123
    16  C    0.206880   0.202709
    17  H    0.192290  -0.005611
    18  H    0.192281  -0.005612
    19  H    0.175009   0.002272
    20  H    0.174966   0.002272
    21  H    0.179798   0.001673
    22  C   -0.489254  -0.064447
    23  C    0.068761   0.013035
    24  C    0.068765   0.013044
    25  N    0.039154   0.076253
    26  N    0.039115   0.076256
    27  C   -0.238977  -0.003930
    28  H    0.193728   0.004191
    29  H    0.137447   0.000274
    30  H    0.189990   0.003877
    31  C   -0.246530  -0.003605
    32  H    0.187358   0.003404
    33  H    0.198596   0.004039
    34  H    0.147208   0.000152
    35  C   -0.239085  -0.003926
    36  H    0.193790   0.004182
    37  H    0.137352   0.000274
    38  H    0.190065   0.003884
    39  C   -0.247261  -0.003612
    40  H    0.187383   0.003372
    41  H    0.198768   0.004060
    42  H    0.147598   0.000165
 Sum of Mulliken charges =   2.00000   1.00000

 Dipole moment (field-independent basis, Debye):
    X=              2.8242    Y=              0.0001    Z=              0.0021  Tot=              2.8242
 Quadrupole moment (field-independent basis, Debye-Ang):
   XX=             82.2143   YY=            -66.5896   ZZ=           -120.3692
   XY=              0.0002   XZ=              0.0062   YZ=             -0.2609

 Normal termination of Gaussian 16 at Thu Jan 21 04:54:08 2021.
