 Gaussian 16, Revision A.03,
 Gaussian 16:  EM64L-G16RevA.03 25-Dec-2016

 ----------------------------------------------------------------------
 #P LC-wHPBE/TZVP iop(3/107=0230500000, 3/108=0230500000) scf=(conver=6
 ,fermi,ndamp=35,noincfock,novaracc,vshift=500,xqc)
 ----------------------------------------------------------------------

 ----------
 H21 C19 N2
 ----------
 Symbolic Z-matrix:
 Charge =  1 Multiplicity = 1

                         Standard orientation:
 ---------------------------------------------------------------------
 Center     Atomic      Atomic             Coordinates (Angstroms)
 Number     Number       Type             X           Y           Z
 ---------------------------------------------------------------------
      1          6           0       -5.924302   -1.175178   -0.282560
      2          6           0       -6.625626    0.000025    0.000251
      3          6           0       -4.530324   -1.177472   -0.278212
      4          6           0       -5.924206    1.175202    0.282951
      5          6           0       -3.810936   -0.000036    0.000021
      6          6           0       -4.530233    1.177435    0.278371
      7          1           0       -7.716547    0.000056    0.000331
      8          1           0       -3.994064   -2.094974   -0.527939
      9          1           0       -6.466302    2.093210    0.514746
     10          1           0       -3.993880    2.094904    0.528010
     11          6           0       -2.333716   -0.000062   -0.000109
     12          6           0       -1.604784    1.119278   -0.452707
     13          6           0       -1.604752   -1.119433    0.452341
     14          6           0       -0.216850    1.125770   -0.449243
     15          6           0       -0.216813   -1.125977    0.448670
     16          6           0        0.504919   -0.000106   -0.000309
     17          1           0       -2.141671    1.985727   -0.840835
     18          1           0       -2.141597   -1.985891    0.840507
     19          1           0        0.315693    1.995203   -0.838189
     20          1           0        0.315745   -1.995465    0.837475
     21          1           0       -6.466484   -2.093156   -0.514265
     22          6           0        1.942874   -0.000086   -0.000402
     23          6           0        3.143323   -0.702637    0.003392
     24          6           0        3.143127    0.702801   -0.003915
     25          7           0        3.787080   -1.855019   -0.001668
     26          7           0        3.786774    1.855252    0.001097
     27          6           0        3.068411   -3.122520   -0.167733
     28          1           0        3.187886   -3.748580    0.728596
     29          1           0        2.005788   -2.927607   -0.341041
     30          1           0        3.471162   -3.663551   -1.036238
     31          6           0        5.245121   -1.944160    0.100275
     32          1           0        5.509149   -2.713998    0.838669
     33          1           0        5.688951   -2.217262   -0.869111
     34          1           0        5.659251   -0.989594    0.439085
     35          6           0        3.068047    3.122616    0.168130
     36          1           0        3.188116    3.749602   -0.727455
     37          1           0        2.005304    2.927538    0.340531
     38          1           0        3.470192    3.662707    1.037509
     39          6           0        5.244950    1.944232   -0.099391
     40          1           0        5.509538    2.718440   -0.832954
     41          1           0        5.688631    2.211256    0.871774
     42          1           0        5.658779    0.991638   -0.444142
 ---------------------------------------------------------------------

 SCF Done:  E(RLC-wHPBE) =  -845.402158845     A.U. after   15 cycles

 The electronic state is 1-A.
 Alpha  occ. eigenvalues --  -14.31460 -14.31459 -10.24389 -10.24356 -10.20635
 Alpha  occ. eigenvalues --  -10.18494 -10.18492 -10.18087 -10.18087 -10.16242
 Alpha  occ. eigenvalues --  -10.14464 -10.14382 -10.14381 -10.13022 -10.13021
 Alpha  occ. eigenvalues --  -10.11745 -10.10342 -10.10340 -10.09769 -10.09758
 Alpha  occ. eigenvalues --  -10.09705  -1.18839  -1.16283  -1.10715  -1.03931
 Alpha  occ. eigenvalues --   -1.00030  -0.95435  -0.93349  -0.93154  -0.92656
 Alpha  occ. eigenvalues --   -0.91667  -0.90629  -0.88937  -0.88858  -0.82033
 Alpha  occ. eigenvalues --   -0.79753  -0.75831  -0.75801  -0.74727  -0.74514
 Alpha  occ. eigenvalues --   -0.74073  -0.70576  -0.70288  -0.69384  -0.68253
 Alpha  occ. eigenvalues --   -0.68224  -0.65472  -0.64444  -0.62879  -0.62733
 Alpha  occ. eigenvalues --   -0.62449  -0.61505  -0.61032  -0.60859  -0.60667
 Alpha  occ. eigenvalues --   -0.60083  -0.60061  -0.59586  -0.58994  -0.58626
 Alpha  occ. eigenvalues --   -0.57134  -0.57057  -0.56085  -0.54129  -0.53562
 Alpha  occ. eigenvalues --   -0.52435  -0.50767  -0.49633  -0.49048  -0.47607
 Alpha  occ. eigenvalues --   -0.44866  -0.42811  -0.41193  -0.38979
 Alpha virt. eigenvalues --   -0.12274  -0.06718  -0.04514  -0.04342  -0.03497
 Alpha virt. eigenvalues --   -0.03064  -0.00630  -0.00041   0.00616   0.01538
 Alpha virt. eigenvalues --    0.01835   0.02676   0.03825   0.04317   0.04524

 Mulliken charges:
               1
     1  C   -0.095257
     2  C   -0.121094
     3  C   -0.124466
     4  C   -0.095255
     5  C   -0.000521
     6  C   -0.124470
     7  H    0.134111
     8  H    0.141871
     9  H    0.128165
    10  H    0.141871
    11  C    0.011254
    12  C   -0.159649
    13  C   -0.159656
    14  C   -0.100757
    15  C   -0.100788
    16  C    0.168371
    17  H    0.161022
    18  H    0.161016
    19  H    0.141831
    20  H    0.141790
    21  H    0.128165
    22  C   -0.458627
    23  C    0.050151
    24  C    0.050203
    25  N    0.007689
    26  N    0.007635
    27  C   -0.236890
    28  H    0.169096
    29  H    0.148795
    30  H    0.164183
    31  C   -0.240474
    32  H    0.165563
    33  H    0.174411
    34  H    0.138109
    35  C   -0.237004
    36  H    0.169158
    37  H    0.148712
    38  H    0.164254
    39  C   -0.241162
    40  H    0.165614
    41  H    0.174562
    42  H    0.138470
 Sum of Mulliken charges =   1.00000

 Dipole moment (field-independent basis, Debye):
    X=             11.7207    Y=              0.0004    Z=              0.0017  Tot=             11.7207
 Quadrupole moment (field-independent basis, Debye-Ang):
   XX=            -23.7246   YY=            -84.4197   ZZ=           -126.0260
   XY=              0.0018   XZ=              0.0060   YZ=             -0.3269

 Normal termination of Gaussian 16 at Thu Jan 21 01:59:39 2021.
