 Gaussian 16, Revision A.03,
 Gaussian 16:  EM64L-G16RevA.03 25-Dec-2016

 ----------------------------------------------------------------------
 #P LC-wHPBE/TZVP iop(3/107=0221900000, 3/108=0221900000) scf=(conver=6
 ,fermi,ndamp=35,noincfock,novaracc,vshift=500,xqc)
 ----------------------------------------------------------------------

 ----------
 H21 C19 N2
 ----------
 Symbolic Z-matrix:
 Charge =  1 Multiplicity = 1

                         Standard orientation:
 ---------------------------------------------------------------------
 Center     Atomic      Atomic             Coordinates (Angstroms)
 Number     Number       Type             X           Y           Z
 ---------------------------------------------------------------------
      1          6           0       -5.924302   -1.175178   -0.282560
      2          6           0       -6.625626    0.000025    0.000251
      3          6           0       -4.530324   -1.177472   -0.278212
      4          6           0       -5.924206    1.175202    0.282951
      5          6           0       -3.810936   -0.000036    0.000021
      6          6           0       -4.530233    1.177435    0.278371
      7          1           0       -7.716547    0.000056    0.000331
      8          1           0       -3.994064   -2.094974   -0.527939
      9          1           0       -6.466302    2.093210    0.514746
     10          1           0       -3.993880    2.094904    0.528010
     11          6           0       -2.333716   -0.000062   -0.000109
     12          6           0       -1.604784    1.119278   -0.452707
     13          6           0       -1.604752   -1.119433    0.452341
     14          6           0       -0.216850    1.125770   -0.449243
     15          6           0       -0.216813   -1.125977    0.448670
     16          6           0        0.504919   -0.000106   -0.000309
     17          1           0       -2.141671    1.985727   -0.840835
     18          1           0       -2.141597   -1.985891    0.840507
     19          1           0        0.315693    1.995203   -0.838189
     20          1           0        0.315745   -1.995465    0.837475
     21          1           0       -6.466484   -2.093156   -0.514265
     22          6           0        1.942874   -0.000086   -0.000402
     23          6           0        3.143323   -0.702637    0.003392
     24          6           0        3.143127    0.702801   -0.003915
     25          7           0        3.787080   -1.855019   -0.001668
     26          7           0        3.786774    1.855252    0.001097
     27          6           0        3.068411   -3.122520   -0.167733
     28          1           0        3.187886   -3.748580    0.728596
     29          1           0        2.005788   -2.927607   -0.341041
     30          1           0        3.471162   -3.663551   -1.036238
     31          6           0        5.245121   -1.944160    0.100275
     32          1           0        5.509149   -2.713998    0.838669
     33          1           0        5.688951   -2.217262   -0.869111
     34          1           0        5.659251   -0.989594    0.439085
     35          6           0        3.068047    3.122616    0.168130
     36          1           0        3.188116    3.749602   -0.727455
     37          1           0        2.005304    2.927538    0.340531
     38          1           0        3.470192    3.662707    1.037509
     39          6           0        5.244950    1.944232   -0.099391
     40          1           0        5.509538    2.718440   -0.832954
     41          1           0        5.688631    2.211256    0.871774
     42          1           0        5.658779    0.991638   -0.444142
 ---------------------------------------------------------------------

 SCF Done:  E(RLC-wHPBE) =  -845.392030469     A.U. after   15 cycles

 The electronic state is 1-A.
 Alpha  occ. eigenvalues --  -14.30990 -14.30989 -10.23852 -10.23819 -10.20116
 Alpha  occ. eigenvalues --  -10.18009 -10.18008 -10.17603 -10.17603 -10.15750
 Alpha  occ. eigenvalues --  -10.13972 -10.13889 -10.13888 -10.12538 -10.12536
 Alpha  occ. eigenvalues --  -10.11266 -10.09863 -10.09862 -10.09293 -10.09282
 Alpha  occ. eigenvalues --  -10.09230  -1.18313  -1.15779  -1.10210  -1.03413
 Alpha  occ. eigenvalues --   -0.99524  -0.94943  -0.92875  -0.92680  -0.92174
 Alpha  occ. eigenvalues --   -0.91208  -0.90174  -0.88464  -0.88393  -0.81593
 Alpha  occ. eigenvalues --   -0.79317  -0.75428  -0.75402  -0.74317  -0.74113
 Alpha  occ. eigenvalues --   -0.73662  -0.70198  -0.69875  -0.69021  -0.67867
 Alpha  occ. eigenvalues --   -0.67839  -0.65106  -0.64072  -0.62528  -0.62370
 Alpha  occ. eigenvalues --   -0.62097  -0.61158  -0.60689  -0.60517  -0.60321
 Alpha  occ. eigenvalues --   -0.59735  -0.59718  -0.59247  -0.58653  -0.58295
 Alpha  occ. eigenvalues --   -0.56794  -0.56729  -0.55743  -0.53813  -0.53219
 Alpha  occ. eigenvalues --   -0.52123  -0.50463  -0.49334  -0.48754  -0.47347
 Alpha  occ. eigenvalues --   -0.44633  -0.42592  -0.40974  -0.38790
 Alpha virt. eigenvalues --   -0.12411  -0.06892  -0.04711  -0.04524  -0.03667
 Alpha virt. eigenvalues --   -0.03247  -0.00794  -0.00240   0.00434   0.01361
 Alpha virt. eigenvalues --    0.01632   0.02491   0.03619   0.04109   0.04344

 Mulliken charges:
               1
     1  C   -0.094294
     2  C   -0.119837
     3  C   -0.123044
     4  C   -0.094292
     5  C   -0.000975
     6  C   -0.123048
     7  H    0.133114
     8  H    0.140713
     9  H    0.127134
    10  H    0.140713
    11  C    0.012448
    12  C   -0.158786
    13  C   -0.158793
    14  C   -0.100304
    15  C   -0.100336
    16  C    0.169527
    17  H    0.159783
    18  H    0.159776
    19  H    0.140611
    20  H    0.140570
    21  H    0.127134
    22  C   -0.460380
    23  C    0.050162
    24  C    0.050213
    25  N    0.009022
    26  N    0.008970
    27  C   -0.237644
    28  H    0.169101
    29  H    0.149150
    30  H    0.164280
    31  C   -0.241231
    32  H    0.165665
    33  H    0.174406
    34  H    0.138467
    35  C   -0.237759
    36  H    0.169163
    37  H    0.149067
    38  H    0.164352
    39  C   -0.241917
    40  H    0.165716
    41  H    0.174556
    42  H    0.138825
 Sum of Mulliken charges =   1.00000

 Dipole moment (field-independent basis, Debye):
    X=             11.7045    Y=              0.0004    Z=              0.0017  Tot=             11.7045
 Quadrupole moment (field-independent basis, Debye-Ang):
   XX=            -23.7014   YY=            -84.4561   ZZ=           -126.0426
   XY=              0.0018   XZ=              0.0060   YZ=             -0.3229

 Normal termination of Gaussian 16 at Thu Jan 21 00:11:28 2021.
