 Gaussian 16, Revision A.03,
 Gaussian 16:  EM64L-G16RevA.03 25-Dec-2016

 ----------------------------------------------------------------------
 #P LC-wHPBE/TZVP iop(3/107=0207400000, 3/108=0207400000) scf=(conver=6
 ,fermi,ndamp=35,noincfock,novaracc,vshift=500,xqc)
 ----------------------------------------------------------------------

 ----------
 H21 C19 N2
 ----------
 Symbolic Z-matrix:
 Charge =  2 Multiplicity = 2

                         Standard orientation:
 ---------------------------------------------------------------------
 Center     Atomic      Atomic             Coordinates (Angstroms)
 Number     Number       Type             X           Y           Z
 ---------------------------------------------------------------------
      1          6           0       -5.924302   -1.175178   -0.282560
      2          6           0       -6.625626    0.000025    0.000251
      3          6           0       -4.530324   -1.177472   -0.278212
      4          6           0       -5.924206    1.175202    0.282951
      5          6           0       -3.810936   -0.000036    0.000021
      6          6           0       -4.530233    1.177435    0.278371
      7          1           0       -7.716547    0.000056    0.000331
      8          1           0       -3.994064   -2.094974   -0.527939
      9          1           0       -6.466302    2.093210    0.514746
     10          1           0       -3.993880    2.094904    0.528010
     11          6           0       -2.333716   -0.000062   -0.000109
     12          6           0       -1.604784    1.119278   -0.452707
     13          6           0       -1.604752   -1.119433    0.452341
     14          6           0       -0.216850    1.125770   -0.449243
     15          6           0       -0.216813   -1.125977    0.448670
     16          6           0        0.504919   -0.000106   -0.000309
     17          1           0       -2.141671    1.985727   -0.840835
     18          1           0       -2.141597   -1.985891    0.840507
     19          1           0        0.315693    1.995203   -0.838189
     20          1           0        0.315745   -1.995465    0.837475
     21          1           0       -6.466484   -2.093156   -0.514265
     22          6           0        1.942874   -0.000086   -0.000402
     23          6           0        3.143323   -0.702637    0.003392
     24          6           0        3.143127    0.702801   -0.003915
     25          7           0        3.787080   -1.855019   -0.001668
     26          7           0        3.786774    1.855252    0.001097
     27          6           0        3.068411   -3.122520   -0.167733
     28          1           0        3.187886   -3.748580    0.728596
     29          1           0        2.005788   -2.927607   -0.341041
     30          1           0        3.471162   -3.663551   -1.036238
     31          6           0        5.245121   -1.944160    0.100275
     32          1           0        5.509149   -2.713998    0.838669
     33          1           0        5.688951   -2.217262   -0.869111
     34          1           0        5.659251   -0.989594    0.439085
     35          6           0        3.068047    3.122616    0.168130
     36          1           0        3.188116    3.749602   -0.727455
     37          1           0        2.005304    2.927538    0.340531
     38          1           0        3.470192    3.662707    1.037509
     39          6           0        5.244950    1.944232   -0.099391
     40          1           0        5.509538    2.718440   -0.832954
     41          1           0        5.688631    2.211256    0.871774
     42          1           0        5.658779    0.991638   -0.444142
 ---------------------------------------------------------------------

 SCF Done:  E(ULC-wHPBE) =  -844.989907372     A.U. after   33 cycles
 SCF Done:  E(ULC-wHPBE) =  -844.989917706     a.u. after    2 cycles

 The electronic state is 2-A.
 Alpha  occ. eigenvalues --  -14.41788 -14.41787 -10.34527 -10.34494 -10.30612
 Alpha  occ. eigenvalues --  -10.30053 -10.28811 -10.28278 -10.26706 -10.26703
 Alpha  occ. eigenvalues --  -10.26650 -10.26650 -10.26593 -10.26593 -10.26349
 Alpha  occ. eigenvalues --  -10.26348 -10.25626 -10.25258 -10.25256 -10.23911
 Alpha  occ. eigenvalues --  -10.23910  -1.28645  -1.25844  -1.20810  -1.17461
 Alpha  occ. eigenvalues --   -1.14723  -1.09182  -1.05562  -1.03768  -1.03242
 Alpha  occ. eigenvalues --   -1.01911  -1.01567  -1.00765  -0.99533  -0.95281
 Alpha  occ. eigenvalues --   -0.92975  -0.89290  -0.88833  -0.86680  -0.84666
 Alpha  occ. eigenvalues --   -0.84397  -0.82547  -0.79942  -0.79891  -0.79395
 Alpha  occ. eigenvalues --   -0.77824  -0.77811  -0.77239  -0.75065  -0.74796
 Alpha  occ. eigenvalues --   -0.73618  -0.73296  -0.72963  -0.71640  -0.71222
 Alpha  occ. eigenvalues --   -0.71121  -0.70400  -0.69691  -0.69381  -0.69229
 Alpha  occ. eigenvalues --   -0.68806  -0.68628  -0.68080  -0.67349  -0.66395
 Alpha  occ. eigenvalues --   -0.65593  -0.64092  -0.63453  -0.61541  -0.60521
 Alpha  occ. eigenvalues --   -0.58232  -0.56628  -0.56134  -0.52663
 Alpha virt. eigenvalues --   -0.26211  -0.21068  -0.19779  -0.18887  -0.16240
 Alpha virt. eigenvalues --   -0.14525  -0.13772  -0.10074  -0.09843  -0.08738
 Alpha virt. eigenvalues --   -0.08578  -0.07996  -0.07427  -0.06843  -0.06678

  Beta  occ. eigenvalues --  -14.41632 -14.41631 -10.34515 -10.34482 -10.30682
  Beta  occ. eigenvalues --  -10.29794 -10.28720 -10.28027 -10.26732 -10.26731
  Beta  occ. eigenvalues --  -10.26598 -10.26597 -10.26555 -10.26554 -10.26354
  Beta  occ. eigenvalues --  -10.26353 -10.25257 -10.25132 -10.25130 -10.23959
  Beta  occ. eigenvalues --  -10.23957  -1.28472  -1.25625  -1.20618  -1.17078
  Beta  occ. eigenvalues --   -1.14262  -1.08702  -1.05450  -1.03084  -1.03054
  Beta  occ. eigenvalues --   -1.01822  -1.01532  -1.00731  -0.99464  -0.95052
  Beta  occ. eigenvalues --   -0.92768  -0.88982  -0.88525  -0.86559  -0.84568
  Beta  occ. eigenvalues --   -0.84304  -0.82427  -0.79798  -0.79706  -0.79269
  Beta  occ. eigenvalues --   -0.77694  -0.77654  -0.76962  -0.74701  -0.74608
  Beta  occ. eigenvalues --   -0.73552  -0.73144  -0.72628  -0.71529  -0.71106
  Beta  occ. eigenvalues --   -0.71088  -0.69967  -0.69543  -0.69285  -0.69164
  Beta  occ. eigenvalues --   -0.68783  -0.68228  -0.67338  -0.66795  -0.66303
  Beta  occ. eigenvalues --   -0.65423  -0.63990  -0.63172  -0.59915  -0.59286
  Beta  occ. eigenvalues --   -0.58039  -0.55816  -0.52432
  Beta virt. eigenvalues --   -0.38375  -0.25176  -0.20452  -0.18168  -0.18009
  Beta virt. eigenvalues --   -0.15740  -0.13728  -0.13578  -0.10051  -0.09800
  Beta virt. eigenvalues --   -0.08692  -0.08522  -0.07926  -0.07394  -0.06648

 Mulliken charges and spin densities:
               1          2
     1  C   -0.072771  -0.050979
     2  C   -0.044904   0.297100
     3  C   -0.083049   0.092274
     4  C   -0.072769  -0.050977
     5  C    0.016392   0.200871
     6  C   -0.083054   0.092268
     7  H    0.191646  -0.013810
     8  H    0.185599  -0.005626
     9  H    0.179591   0.001653
    10  H    0.185598  -0.005626
    11  C    0.032967   0.036376
    12  C   -0.119801   0.108055
    13  C   -0.119814   0.108051
    14  C   -0.090425  -0.069383
    15  C   -0.090454  -0.069370
    16  C    0.207053   0.202113
    17  H    0.192123  -0.005581
    18  H    0.192115  -0.005582
    19  H    0.174814   0.002242
    20  H    0.174771   0.002242
    21  H    0.179591   0.001653
    22  C   -0.489288  -0.063994
    23  C    0.068740   0.012907
    24  C    0.068743   0.012916
    25  N    0.039409   0.076610
    26  N    0.039370   0.076613
    27  C   -0.239139  -0.003930
    28  H    0.193794   0.004217
    29  H    0.137574   0.000272
    30  H    0.190064   0.003899
    31  C   -0.246680  -0.003610
    32  H    0.187437   0.003424
    33  H    0.198663   0.004066
    34  H    0.147295   0.000153
    35  C   -0.239247  -0.003926
    36  H    0.193856   0.004208
    37  H    0.137479   0.000272
    38  H    0.190139   0.003907
    39  C   -0.247411  -0.003617
    40  H    0.187462   0.003392
    41  H    0.198834   0.004087
    42  H    0.147684   0.000166
 Sum of Mulliken charges =   2.00000   1.00000

 Dipole moment (field-independent basis, Debye):
    X=              2.8596    Y=              0.0001    Z=              0.0021  Tot=              2.8596
 Quadrupole moment (field-independent basis, Debye-Ang):
   XX=             82.1596   YY=            -66.5733   ZZ=           -120.3712
   XY=              0.0002   XZ=              0.0062   YZ=             -0.2606

 Normal termination of Gaussian 16 at Thu Jan 21 06:42:43 2021.
