 Gaussian 16, Revision A.03,
 Gaussian 16:  EM64L-G16RevA.03 25-Dec-2016

 ----------------------------------------------------------------------
 #P LC-wHPBE/TZVP iop(3/107=0208400000, 3/108=0208400000) scf=(conver=6
 ,fermi,ndamp=35,noincfock,novaracc,vshift=500,xqc)
 ----------------------------------------------------------------------

 ----------
 H21 C19 N2
 ----------
 Symbolic Z-matrix:
 Charge =  1 Multiplicity = 1

                         Standard orientation:
 ---------------------------------------------------------------------
 Center     Atomic      Atomic             Coordinates (Angstroms)
 Number     Number       Type             X           Y           Z
 ---------------------------------------------------------------------
      1          6           0       -5.924302   -1.175178   -0.282560
      2          6           0       -6.625626    0.000025    0.000251
      3          6           0       -4.530324   -1.177472   -0.278212
      4          6           0       -5.924206    1.175202    0.282951
      5          6           0       -3.810936   -0.000036    0.000021
      6          6           0       -4.530233    1.177435    0.278371
      7          1           0       -7.716547    0.000056    0.000331
      8          1           0       -3.994064   -2.094974   -0.527939
      9          1           0       -6.466302    2.093210    0.514746
     10          1           0       -3.993880    2.094904    0.528010
     11          6           0       -2.333716   -0.000062   -0.000109
     12          6           0       -1.604784    1.119278   -0.452707
     13          6           0       -1.604752   -1.119433    0.452341
     14          6           0       -0.216850    1.125770   -0.449243
     15          6           0       -0.216813   -1.125977    0.448670
     16          6           0        0.504919   -0.000106   -0.000309
     17          1           0       -2.141671    1.985727   -0.840835
     18          1           0       -2.141597   -1.985891    0.840507
     19          1           0        0.315693    1.995203   -0.838189
     20          1           0        0.315745   -1.995465    0.837475
     21          1           0       -6.466484   -2.093156   -0.514265
     22          6           0        1.942874   -0.000086   -0.000402
     23          6           0        3.143323   -0.702637    0.003392
     24          6           0        3.143127    0.702801   -0.003915
     25          7           0        3.787080   -1.855019   -0.001668
     26          7           0        3.786774    1.855252    0.001097
     27          6           0        3.068411   -3.122520   -0.167733
     28          1           0        3.187886   -3.748580    0.728596
     29          1           0        2.005788   -2.927607   -0.341041
     30          1           0        3.471162   -3.663551   -1.036238
     31          6           0        5.245121   -1.944160    0.100275
     32          1           0        5.509149   -2.713998    0.838669
     33          1           0        5.688951   -2.217262   -0.869111
     34          1           0        5.659251   -0.989594    0.439085
     35          6           0        3.068047    3.122616    0.168130
     36          1           0        3.188116    3.749602   -0.727455
     37          1           0        2.005304    2.927538    0.340531
     38          1           0        3.470192    3.662707    1.037509
     39          6           0        5.244950    1.944232   -0.099391
     40          1           0        5.509538    2.718440   -0.832954
     41          1           0        5.688631    2.211256    0.871774
     42          1           0        5.658779    0.991638   -0.444142
 ---------------------------------------------------------------------

 SCF Done:  E(RLC-wHPBE) =  -845.375756639     A.U. after   16 cycles

 The electronic state is 1-A.
 Alpha  occ. eigenvalues --  -14.30249 -14.30248 -10.23009 -10.22976 -10.19300
 Alpha  occ. eigenvalues --  -10.17249 -10.17248 -10.16843 -10.16842 -10.14977
 Alpha  occ. eigenvalues --  -10.13200 -10.13116 -10.13115 -10.11776 -10.11775
 Alpha  occ. eigenvalues --  -10.10515 -10.09114 -10.09112 -10.08547 -10.08536
 Alpha  occ. eigenvalues --  -10.08484  -1.17486  -1.14984  -1.09412  -1.02599
 Alpha  occ. eigenvalues --   -0.98728  -0.94164  -0.92121  -0.91927  -0.91412
 Alpha  occ. eigenvalues --   -0.90477  -0.89450  -0.87716  -0.87656  -0.80892
 Alpha  occ. eigenvalues --   -0.78621  -0.74782  -0.74763  -0.73662  -0.73470
 Alpha  occ. eigenvalues --   -0.73004  -0.69588  -0.69213  -0.68434  -0.67246
 Alpha  occ. eigenvalues --   -0.67220  -0.64517  -0.63473  -0.61960  -0.61780
 Alpha  occ. eigenvalues --   -0.61528  -0.60598  -0.60133  -0.59964  -0.59762
 Alpha  occ. eigenvalues --   -0.59175  -0.59164  -0.58698  -0.58100  -0.57759
 Alpha  occ. eigenvalues --   -0.56246  -0.56198  -0.55188  -0.53302  -0.52661
 Alpha  occ. eigenvalues --   -0.51617  -0.49970  -0.48849  -0.48278  -0.46918
 Alpha  occ. eigenvalues --   -0.44247  -0.42231  -0.40609  -0.38478
 Alpha virt. eigenvalues --   -0.12642  -0.07187  -0.05037  -0.04831  -0.03954
 Alpha virt. eigenvalues --   -0.03556  -0.01072  -0.00576   0.00127   0.01061
 Alpha virt. eigenvalues --    0.01294   0.02180   0.03275   0.03763   0.04039

 Mulliken charges:
               1
     1  C   -0.092912
     2  C   -0.117911
     3  C   -0.120858
     4  C   -0.092910
     5  C   -0.001889
     6  C   -0.120862
     7  H    0.131686
     8  H    0.139026
     9  H    0.125656
    10  H    0.139026
    11  C    0.014391
    12  C   -0.157509
    13  C   -0.157515
    14  C   -0.099676
    15  C   -0.099708
    16  C    0.171500
    17  H    0.157947
    18  H    0.157940
    19  H    0.138824
    20  H    0.138783
    21  H    0.125656
    22  C   -0.462865
    23  C    0.050186
    24  C    0.050233
    25  N    0.010816
    26  N    0.010769
    27  C   -0.239059
    28  H    0.169181
    29  H    0.149764
    30  H    0.164497
    31  C   -0.242638
    32  H    0.165885
    33  H    0.174472
    34  H    0.139082
    35  C   -0.239177
    36  H    0.169243
    37  H    0.149682
    38  H    0.164570
    39  C   -0.243319
    40  H    0.165938
    41  H    0.174621
    42  H    0.139435
 Sum of Mulliken charges =   1.00000

 Dipole moment (field-independent basis, Debye):
    X=             11.6708    Y=              0.0004    Z=              0.0017  Tot=             11.6708
 Quadrupole moment (field-independent basis, Debye-Ang):
   XX=            -23.6512   YY=            -84.5148   ZZ=           -126.0699
   XY=              0.0018   XZ=              0.0060   YZ=             -0.3166

 Normal termination of Gaussian 16 at Thu Jan 21 06:50:17 2021.
