 Gaussian 16, Revision A.03,
 Gaussian 16:  EM64L-G16RevA.03 25-Dec-2016

 ----------------------------------------------------------------------
 #P LC-wHPBE/TZVP iop(3/107=0197900000, 3/108=0197900000) scf=(conver=6
 ,fermi,ndamp=35,noincfock,novaracc,vshift=500,xqc)
 ----------------------------------------------------------------------

 ----------
 H21 C19 N2
 ----------
 Symbolic Z-matrix:
 Charge =  2 Multiplicity = 2

                         Standard orientation:
 ---------------------------------------------------------------------
 Center     Atomic      Atomic             Coordinates (Angstroms)
 Number     Number       Type             X           Y           Z
 ---------------------------------------------------------------------
      1          6           0       -5.924302   -1.175178   -0.282560
      2          6           0       -6.625626    0.000025    0.000251
      3          6           0       -4.530324   -1.177472   -0.278212
      4          6           0       -5.924206    1.175202    0.282951
      5          6           0       -3.810936   -0.000036    0.000021
      6          6           0       -4.530233    1.177435    0.278371
      7          1           0       -7.716547    0.000056    0.000331
      8          1           0       -3.994064   -2.094974   -0.527939
      9          1           0       -6.466302    2.093210    0.514746
     10          1           0       -3.993880    2.094904    0.528010
     11          6           0       -2.333716   -0.000062   -0.000109
     12          6           0       -1.604784    1.119278   -0.452707
     13          6           0       -1.604752   -1.119433    0.452341
     14          6           0       -0.216850    1.125770   -0.449243
     15          6           0       -0.216813   -1.125977    0.448670
     16          6           0        0.504919   -0.000106   -0.000309
     17          1           0       -2.141671    1.985727   -0.840835
     18          1           0       -2.141597   -1.985891    0.840507
     19          1           0        0.315693    1.995203   -0.838189
     20          1           0        0.315745   -1.995465    0.837475
     21          1           0       -6.466484   -2.093156   -0.514265
     22          6           0        1.942874   -0.000086   -0.000402
     23          6           0        3.143323   -0.702637    0.003392
     24          6           0        3.143127    0.702801   -0.003915
     25          7           0        3.787080   -1.855019   -0.001668
     26          7           0        3.786774    1.855252    0.001097
     27          6           0        3.068411   -3.122520   -0.167733
     28          1           0        3.187886   -3.748580    0.728596
     29          1           0        2.005788   -2.927607   -0.341041
     30          1           0        3.471162   -3.663551   -1.036238
     31          6           0        5.245121   -1.944160    0.100275
     32          1           0        5.509149   -2.713998    0.838669
     33          1           0        5.688951   -2.217262   -0.869111
     34          1           0        5.659251   -0.989594    0.439085
     35          6           0        3.068047    3.122616    0.168130
     36          1           0        3.188116    3.749602   -0.727455
     37          1           0        2.005304    2.927538    0.340531
     38          1           0        3.470192    3.662707    1.037509
     39          6           0        5.244950    1.944232   -0.099391
     40          1           0        5.509538    2.718440   -0.832954
     41          1           0        5.688631    2.211256    0.871774
     42          1           0        5.658779    0.991638   -0.444142
 ---------------------------------------------------------------------

 SCF Done:  E(ULC-wHPBE) =  -844.978969398     A.U. after   33 cycles
 SCF Done:  E(ULC-wHPBE) =  -844.978978602     a.u. after    2 cycles

 The electronic state is 2-A.
 Alpha  occ. eigenvalues --  -14.41368 -14.41366 -10.34011 -10.33978 -10.30136
 Alpha  occ. eigenvalues --  -10.29504 -10.28244 -10.27610 -10.26148 -10.26145
 Alpha  occ. eigenvalues --  -10.26121 -10.26121 -10.26107 -10.26107 -10.25885
 Alpha  occ. eigenvalues --  -10.25884 -10.24962 -10.24620 -10.24619 -10.23289
 Alpha  occ. eigenvalues --  -10.23288  -1.28147  -1.25373  -1.20328  -1.16854
 Alpha  occ. eigenvalues --   -1.14078  -1.08590  -1.05004  -1.03164  -1.02614
 Alpha  occ. eigenvalues --   -1.01442  -1.01111  -1.00319  -0.99095  -0.94755
 Alpha  occ. eigenvalues --   -0.92449  -0.88728  -0.88290  -0.86206  -0.84278
 Alpha  occ. eigenvalues --   -0.83999  -0.82039  -0.79534  -0.79501  -0.78990
 Alpha  occ. eigenvalues --   -0.77435  -0.77326  -0.76865  -0.74566  -0.74361
 Alpha  occ. eigenvalues --   -0.73195  -0.72809  -0.72568  -0.71265  -0.70776
 Alpha  occ. eigenvalues --   -0.70769  -0.69972  -0.69279  -0.69041  -0.68894
 Alpha  occ. eigenvalues --   -0.68482  -0.68207  -0.67671  -0.67023  -0.66056
 Alpha  occ. eigenvalues --   -0.65216  -0.63650  -0.63014  -0.61186  -0.60244
 Alpha  occ. eigenvalues --   -0.57934  -0.56282  -0.55762  -0.52462
 Alpha virt. eigenvalues --   -0.26388  -0.21291  -0.19952  -0.19036  -0.16568
 Alpha virt. eigenvalues --   -0.14800  -0.14053  -0.10333  -0.10082  -0.09055
 Alpha virt. eigenvalues --   -0.08867  -0.08188  -0.07686  -0.07145  -0.06965

  Beta  occ. eigenvalues --  -14.41207 -14.41206 -10.34000 -10.33967 -10.30201
  Beta  occ. eigenvalues --  -10.29249 -10.28148 -10.27364 -10.26197 -10.26196
  Beta  occ. eigenvalues --  -10.26125 -10.26125 -10.25988 -10.25987 -10.25890
  Beta  occ. eigenvalues --  -10.25889 -10.24600 -10.24497 -10.24496 -10.23333
  Beta  occ. eigenvalues --  -10.23331  -1.27970  -1.25148  -1.20132  -1.16477
  Beta  occ. eigenvalues --   -1.13623  -1.08118  -1.04891  -1.02484  -1.02456
  Beta  occ. eigenvalues --   -1.01347  -1.01074  -1.00283  -0.99023  -0.94527
  Beta  occ. eigenvalues --   -0.92243  -0.88426  -0.87987  -0.86085  -0.84177
  Beta  occ. eigenvalues --   -0.83905  -0.81920  -0.79408  -0.79291  -0.78868
  Beta  occ. eigenvalues --   -0.77302  -0.77169  -0.76585  -0.74213  -0.74174
  Beta  occ. eigenvalues --   -0.73129  -0.72660  -0.72248  -0.71167  -0.70742
  Beta  occ. eigenvalues --   -0.70636  -0.69575  -0.69131  -0.68943  -0.68827
  Beta  occ. eigenvalues --   -0.68459  -0.67864  -0.67011  -0.66400  -0.65965
  Beta  occ. eigenvalues --   -0.65046  -0.63548  -0.62734  -0.59634  -0.59041
  Beta  occ. eigenvalues --   -0.57736  -0.55437  -0.52233
  Beta virt. eigenvalues --   -0.38464  -0.25367  -0.20695  -0.18400  -0.18202
  Beta virt. eigenvalues --   -0.16074  -0.14007  -0.13870  -0.10309  -0.10040
  Beta virt. eigenvalues --   -0.09009  -0.08810  -0.08119  -0.07655  -0.06936

 Mulliken charges and spin densities:
               1          2
     1  C   -0.071858  -0.047442
     2  C   -0.045420   0.289878
     3  C   -0.082300   0.089787
     4  C   -0.071855  -0.047440
     5  C    0.015504   0.197087
     6  C   -0.082304   0.089781
     7  H    0.190362  -0.013519
     8  H    0.184087  -0.005488
     9  H    0.178325   0.001527
    10  H    0.184086  -0.005488
    11  C    0.033988   0.040766
    12  C   -0.119534   0.103754
    13  C   -0.119547   0.103749
    14  C   -0.089682  -0.064675
    15  C   -0.089711  -0.064662
    16  C    0.208215   0.198302
    17  H    0.191100  -0.005391
    18  H    0.191092  -0.005392
    19  H    0.173614   0.002053
    20  H    0.173571   0.002054
    21  H    0.178325   0.001526
    22  C   -0.489393  -0.060997
    23  C    0.068621   0.012084
    24  C    0.068623   0.012092
    25  N    0.040935   0.078943
    26  N    0.040899   0.078946
    27  C   -0.240237  -0.003930
    28  H    0.194248   0.004386
    29  H    0.138410   0.000258
    30  H    0.190562   0.004047
    31  C   -0.247692  -0.003639
    32  H    0.187964   0.003557
    33  H    0.199119   0.004245
    34  H    0.147861   0.000159
    35  C   -0.240346  -0.003926
    36  H    0.194310   0.004377
    37  H    0.138315   0.000258
    38  H    0.190637   0.004055
    39  C   -0.248421  -0.003646
    40  H    0.187989   0.003523
    41  H    0.199290   0.004266
    42  H    0.148248   0.000173
 Sum of Mulliken charges =   2.00000   1.00000

 Dipole moment (field-independent basis, Debye):
    X=              3.0875    Y=              0.0001    Z=              0.0021  Tot=              3.0875
 Quadrupole moment (field-independent basis, Debye-Ang):
   XX=             81.8212   YY=            -66.4668   ZZ=           -120.3845
   XY=              0.0001   XZ=              0.0063   YZ=             -0.2584

 Normal termination of Gaussian 16 at Thu Jan 21 04:17:56 2021.
