 Gaussian 16, Revision A.03,
 Gaussian 16:  EM64L-G16RevA.03 25-Dec-2016

 ----------------------------------------------------------------------
 #P LC-wHPBE/TZVP iop(3/107=0156200000, 3/108=0156200000) scf=(conver=6
 ,fermi,ndamp=35,noincfock,novaracc,vshift=500,xqc)
 ----------------------------------------------------------------------

 ----------
 H21 C19 N2
 ----------
 Symbolic Z-matrix:
 Charge =  1 Multiplicity = 1

                         Standard orientation:
 ---------------------------------------------------------------------
 Center     Atomic      Atomic             Coordinates (Angstroms)
 Number     Number       Type             X           Y           Z
 ---------------------------------------------------------------------
      1          6           0       -5.924302   -1.175178   -0.282560
      2          6           0       -6.625626    0.000025    0.000251
      3          6           0       -4.530324   -1.177472   -0.278212
      4          6           0       -5.924206    1.175202    0.282951
      5          6           0       -3.810936   -0.000036    0.000021
      6          6           0       -4.530233    1.177435    0.278371
      7          1           0       -7.716547    0.000056    0.000331
      8          1           0       -3.994064   -2.094974   -0.527939
      9          1           0       -6.466302    2.093210    0.514746
     10          1           0       -3.993880    2.094904    0.528010
     11          6           0       -2.333716   -0.000062   -0.000109
     12          6           0       -1.604784    1.119278   -0.452707
     13          6           0       -1.604752   -1.119433    0.452341
     14          6           0       -0.216850    1.125770   -0.449243
     15          6           0       -0.216813   -1.125977    0.448670
     16          6           0        0.504919   -0.000106   -0.000309
     17          1           0       -2.141671    1.985727   -0.840835
     18          1           0       -2.141597   -1.985891    0.840507
     19          1           0        0.315693    1.995203   -0.838189
     20          1           0        0.315745   -1.995465    0.837475
     21          1           0       -6.466484   -2.093156   -0.514265
     22          6           0        1.942874   -0.000086   -0.000402
     23          6           0        3.143323   -0.702637    0.003392
     24          6           0        3.143127    0.702801   -0.003915
     25          7           0        3.787080   -1.855019   -0.001668
     26          7           0        3.786774    1.855252    0.001097
     27          6           0        3.068411   -3.122520   -0.167733
     28          1           0        3.187886   -3.748580    0.728596
     29          1           0        2.005788   -2.927607   -0.341041
     30          1           0        3.471162   -3.663551   -1.036238
     31          6           0        5.245121   -1.944160    0.100275
     32          1           0        5.509149   -2.713998    0.838669
     33          1           0        5.688951   -2.217262   -0.869111
     34          1           0        5.659251   -0.989594    0.439085
     35          6           0        3.068047    3.122616    0.168130
     36          1           0        3.188116    3.749602   -0.727455
     37          1           0        2.005304    2.927538    0.340531
     38          1           0        3.470192    3.662707    1.037509
     39          6           0        5.244950    1.944232   -0.099391
     40          1           0        5.509538    2.718440   -0.832954
     41          1           0        5.688631    2.211256    0.871774
     42          1           0        5.658779    0.991638   -0.444142
 ---------------------------------------------------------------------

 SCF Done:  E(RLC-wHPBE) =  -845.310526211     A.U. after   16 cycles

 The electronic state is 1-A.
 Alpha  occ. eigenvalues --  -14.27349 -14.27348 -10.19749 -10.19716 -10.16138
 Alpha  occ. eigenvalues --  -10.14295 -10.14293 -10.13889 -10.13889 -10.11988
 Alpha  occ. eigenvalues --  -10.10219 -10.10119 -10.10118 -10.08834 -10.08833
 Alpha  occ. eigenvalues --  -10.07625 -10.06229 -10.06227 -10.05675 -10.05663
 Alpha  occ. eigenvalues --  -10.05614  -1.14280  -1.11886  -1.06277  -0.99450
 Alpha  occ. eigenvalues --   -0.95654  -0.91114  -0.89133  -0.88944  -0.88403
 Alpha  occ. eigenvalues --   -0.87550  -0.86554  -0.84785  -0.84740  -0.78079
 Alpha  occ. eigenvalues --   -0.75819  -0.72140  -0.72138  -0.71012  -0.70848
 Alpha  occ. eigenvalues --   -0.70310  -0.67059  -0.66502  -0.65981  -0.64685
 Alpha  occ. eigenvalues --   -0.64652  -0.62065  -0.60990  -0.59573  -0.59286
 Alpha  occ. eigenvalues --   -0.59129  -0.58251  -0.57797  -0.57637  -0.57425
 Alpha  occ. eigenvalues --   -0.56846  -0.56844  -0.56395  -0.55781  -0.55485
 Alpha  occ. eigenvalues --   -0.53964  -0.53957  -0.52839  -0.51148  -0.50305
 Alpha  occ. eigenvalues --   -0.49459  -0.47839  -0.46803  -0.46250  -0.45013
 Alpha  occ. eigenvalues --   -0.42489  -0.40616  -0.38947  -0.37054
 Alpha virt. eigenvalues --   -0.13762  -0.08612  -0.06529  -0.06286  -0.05332
 Alpha virt. eigenvalues --   -0.05048  -0.02423  -0.02160  -0.01313  -0.00359
 Alpha virt. eigenvalues --   -0.00262   0.00712   0.01694   0.02170   0.02594

 Mulliken charges:
               1
     1  C   -0.089227
     2  C   -0.112084
     3  C   -0.113938
     4  C   -0.089225
     5  C   -0.006941
     6  C   -0.113941
     7  H    0.127939
     8  H    0.134293
     9  H    0.121795
    10  H    0.134294
    11  C    0.021212
    12  C   -0.153489
    13  C   -0.153492
    14  C   -0.098779
    15  C   -0.098811
    16  C    0.181356
    17  H    0.152457
    18  H    0.152450
    19  H    0.133675
    20  H    0.133635
    21  H    0.121796
    22  C   -0.469704
    23  C    0.050670
    24  C    0.050703
    25  N    0.014780
    26  N    0.014751
    27  C   -0.246936
    28  H    0.170412
    29  H    0.152664
    30  H    0.166123
    31  C   -0.250258
    32  H    0.167450
    33  H    0.175647
    34  H    0.141909
    35  C   -0.247061
    36  H    0.170475
    37  H    0.152585
    38  H    0.166198
    39  C   -0.250923
    40  H    0.167503
    41  H    0.175793
    42  H    0.142242
 Sum of Mulliken charges =   1.00000

 Dipole moment (field-independent basis, Debye):
    X=             11.5413    Y=              0.0004    Z=              0.0017  Tot=             11.5413
 Quadrupole moment (field-independent basis, Debye-Ang):
   XX=            -23.3613   YY=            -84.7080   ZZ=           -126.1844
   XY=              0.0017   XZ=              0.0059   YZ=             -0.2920

 Normal termination of Gaussian 16 at Thu Jan 21 01:22:30 2021.
