 Gaussian 16, Revision A.03,
 Gaussian 16:  EM64L-G16RevA.03 25-Dec-2016

 ----------------------------------------------------------------------
 #P LC-wHPBE/TZVP iop(3/107=0156200000, 3/108=0156200000) scf=(conver=6
 ,fermi,ndamp=35,noincfock,novaracc,vshift=500,xqc)
 ----------------------------------------------------------------------

 ----------
 H21 C19 N2
 ----------
 Symbolic Z-matrix:
 Charge =  2 Multiplicity = 2

                         Standard orientation:
 ---------------------------------------------------------------------
 Center     Atomic      Atomic             Coordinates (Angstroms)
 Number     Number       Type             X           Y           Z
 ---------------------------------------------------------------------
      1          6           0       -5.924302   -1.175178   -0.282560
      2          6           0       -6.625626    0.000025    0.000251
      3          6           0       -4.530324   -1.177472   -0.278212
      4          6           0       -5.924206    1.175202    0.282951
      5          6           0       -3.810936   -0.000036    0.000021
      6          6           0       -4.530233    1.177435    0.278371
      7          1           0       -7.716547    0.000056    0.000331
      8          1           0       -3.994064   -2.094974   -0.527939
      9          1           0       -6.466302    2.093210    0.514746
     10          1           0       -3.993880    2.094904    0.528010
     11          6           0       -2.333716   -0.000062   -0.000109
     12          6           0       -1.604784    1.119278   -0.452707
     13          6           0       -1.604752   -1.119433    0.452341
     14          6           0       -0.216850    1.125770   -0.449243
     15          6           0       -0.216813   -1.125977    0.448670
     16          6           0        0.504919   -0.000106   -0.000309
     17          1           0       -2.141671    1.985727   -0.840835
     18          1           0       -2.141597   -1.985891    0.840507
     19          1           0        0.315693    1.995203   -0.838189
     20          1           0        0.315745   -1.995465    0.837475
     21          1           0       -6.466484   -2.093156   -0.514265
     22          6           0        1.942874   -0.000086   -0.000402
     23          6           0        3.143323   -0.702637    0.003392
     24          6           0        3.143127    0.702801   -0.003915
     25          7           0        3.787080   -1.855019   -0.001668
     26          7           0        3.786774    1.855252    0.001097
     27          6           0        3.068411   -3.122520   -0.167733
     28          1           0        3.187886   -3.748580    0.728596
     29          1           0        2.005788   -2.927607   -0.341041
     30          1           0        3.471162   -3.663551   -1.036238
     31          6           0        5.245121   -1.944160    0.100275
     32          1           0        5.509149   -2.713998    0.838669
     33          1           0        5.688951   -2.217262   -0.869111
     34          1           0        5.659251   -0.989594    0.439085
     35          6           0        3.068047    3.122616    0.168130
     36          1           0        3.188116    3.749602   -0.727455
     37          1           0        2.005304    2.927538    0.340531
     38          1           0        3.470192    3.662707    1.037509
     39          6           0        5.244950    1.944232   -0.099391
     40          1           0        5.509538    2.718440   -0.832954
     41          1           0        5.688631    2.211256    0.871774
     42          1           0        5.658779    0.991638   -0.444142
 ---------------------------------------------------------------------

 SCF Done:  E(ULC-wHPBE) =  -844.930412712     A.U. after   33 cycles
 SCF Done:  E(ULC-wHPBE) =  -844.930419140     a.u. after    2 cycles

 The electronic state is 2-A.
 Alpha  occ. eigenvalues --  -14.39530 -14.39529 -10.31772 -10.31739 -10.28081
 Alpha  occ. eigenvalues --  -10.27043 -10.25695 -10.24674 -10.24059 -10.24059
 Alpha  occ. eigenvalues --  -10.23865 -10.23864 -10.23774 -10.23773 -10.23572
 Alpha  occ. eigenvalues --  -10.23570 -10.22050 -10.21805 -10.21804 -10.20549
 Alpha  occ. eigenvalues --  -10.20548  -1.25992  -1.23319  -1.18215  -1.14170
 Alpha  occ. eigenvalues --   -1.11217  -1.05944  -1.02493  -1.00480  -0.99814
 Alpha  occ. eigenvalues --   -0.99347  -0.99083  -0.98328  -0.97135  -0.92366
 Alpha  occ. eigenvalues --   -0.90053  -0.86172  -0.85825  -0.84012  -0.82495
 Alpha  occ. eigenvalues --   -0.82186  -0.79699  -0.77687  -0.77681  -0.77138
 Alpha  occ. eigenvalues --   -0.75585  -0.75197  -0.75025  -0.72310  -0.72254
 Alpha  occ. eigenvalues --   -0.71211  -0.70733  -0.70560  -0.69564  -0.69161
 Alpha  occ. eigenvalues --   -0.68620  -0.67984  -0.67448  -0.67366  -0.67310
 Alpha  occ. eigenvalues --   -0.66955  -0.66385  -0.65555  -0.65463  -0.64442
 Alpha  occ. eigenvalues --   -0.63414  -0.61574  -0.60954  -0.59443  -0.58916
 Alpha  occ. eigenvalues --   -0.56422  -0.54628  -0.53941  -0.51425
 Alpha virt. eigenvalues --   -0.27312  -0.22418  -0.20887  -0.19860  -0.18183
 Alpha virt. eigenvalues --   -0.16161  -0.15477  -0.11659  -0.11311  -0.10635
 Alpha virt. eigenvalues --   -0.10317  -0.09184  -0.09022  -0.08622  -0.08419

  Beta  occ. eigenvalues --  -14.39348 -14.39346 -10.31764 -10.31731 -10.28125
  Beta  occ. eigenvalues --  -10.26810 -10.25586 -10.24446 -10.24064 -10.24064
  Beta  occ. eigenvalues --  -10.23870 -10.23869 -10.23817 -10.23817 -10.23458
  Beta  occ. eigenvalues --  -10.23456 -10.21722 -10.21696 -10.21694 -10.20578
  Beta  occ. eigenvalues --  -10.20577  -1.25788  -1.23062  -1.17998  -1.13818
  Beta  occ. eigenvalues --   -1.10793  -1.05509  -1.02383  -0.99966  -0.99658
  Beta  occ. eigenvalues --   -0.99198  -0.99040  -0.98285  -0.97048  -0.92145
  Beta  occ. eigenvalues --   -0.89852  -0.85896  -0.85543  -0.83890  -0.82386
  Beta  occ. eigenvalues --   -0.82084  -0.79588  -0.77592  -0.77395  -0.77032
  Beta  occ. eigenvalues --   -0.75438  -0.74954  -0.74812  -0.72135  -0.71948
  Beta  occ. eigenvalues --   -0.71140  -0.70466  -0.70421  -0.69488  -0.69125
  Beta  occ. eigenvalues --   -0.68431  -0.67748  -0.67335  -0.67267  -0.67191
  Beta  occ. eigenvalues --   -0.66930  -0.66115  -0.65483  -0.64455  -0.64355
  Beta  occ. eigenvalues --   -0.63244  -0.61473  -0.60682  -0.58300  -0.57813
  Beta  occ. eigenvalues --   -0.56200  -0.53599  -0.51297
  Beta virt. eigenvalues --   -0.38890  -0.26364  -0.21908  -0.19584  -0.19198
  Beta virt. eigenvalues --   -0.17718  -0.15423  -0.15303  -0.11629  -0.11269
  Beta virt. eigenvalues --   -0.10589  -0.10253  -0.09116  -0.08993  -0.08387

 Mulliken charges and spin densities:
               1          2
     1  C   -0.068876  -0.033266
     2  C   -0.047878   0.260987
     3  C   -0.080056   0.078569
     4  C   -0.068873  -0.033264
     5  C    0.011045   0.181767
     6  C   -0.080060   0.078564
     7  H    0.185666  -0.012316
     8  H    0.178397  -0.004862
     9  H    0.173762   0.001010
    10  H    0.178396  -0.004862
    11  C    0.037476   0.054822
    12  C   -0.119154   0.086232
    13  C   -0.119165   0.086225
    14  C   -0.087391  -0.045481
    15  C   -0.087418  -0.045466
    16  C    0.214219   0.180472
    17  H    0.187364  -0.004582
    18  H    0.187356  -0.004582
    19  H    0.169192   0.001286
    20  H    0.169149   0.001287
    21  H    0.173762   0.001010
    22  C   -0.487339  -0.045015
    23  C    0.068315   0.008271
    24  C    0.068309   0.008280
    25  N    0.045701   0.090265
    26  N    0.045680   0.090271
    27  C   -0.246275  -0.003885
    28  H    0.196846   0.005242
    29  H    0.142576   0.000193
    30  H    0.193233   0.004797
    31  C   -0.253187  -0.003732
    32  H    0.190770   0.004216
    33  H    0.201767   0.005174
    34  H    0.150589   0.000188
    35  C   -0.246390  -0.003881
    36  H    0.196909   0.005232
    37  H    0.142484   0.000193
    38  H    0.193311   0.004806
    39  C   -0.253908  -0.003740
    40  H    0.190792   0.004175
    41  H    0.201937   0.005199
    42  H    0.150965   0.000204
 Sum of Mulliken charges =   2.00000   1.00000

 Dipole moment (field-independent basis, Debye):
    X=              4.1326    Y=              0.0001    Z=              0.0022  Tot=              4.1326
 Quadrupole moment (field-independent basis, Debye-Ang):
   XX=             80.5547   YY=            -65.9417   ZZ=           -120.4479
   XY=             -0.0001   XZ=              0.0067   YZ=             -0.2457

 Normal termination of Gaussian 16 at Thu Jan 21 01:52:33 2021.
