 Gaussian 16, Revision A.03,
 Gaussian 16:  EM64L-G16RevA.03 25-Dec-2016

 ----------------------------------------------------------------------
 #P LC-wHPBE/TZVP iop(3/107=0230500000, 3/108=0230500000) scf=(conver=6
 ,fermi,ndamp=35,noincfock,novaracc,vshift=500,xqc)
 ----------------------------------------------------------------------

 ----------
 H21 C19 N2
 ----------
 Symbolic Z-matrix:
 Charge =  2 Multiplicity = 2

                         Standard orientation:
 ---------------------------------------------------------------------
 Center     Atomic      Atomic             Coordinates (Angstroms)
 Number     Number       Type             X           Y           Z
 ---------------------------------------------------------------------
      1          6           0       -5.924302   -1.175178   -0.282560
      2          6           0       -6.625626    0.000025    0.000251
      3          6           0       -4.530324   -1.177472   -0.278212
      4          6           0       -5.924206    1.175202    0.282951
      5          6           0       -3.810936   -0.000036    0.000021
      6          6           0       -4.530233    1.177435    0.278371
      7          1           0       -7.716547    0.000056    0.000331
      8          1           0       -3.994064   -2.094974   -0.527939
      9          1           0       -6.466302    2.093210    0.514746
     10          1           0       -3.993880    2.094904    0.528010
     11          6           0       -2.333716   -0.000062   -0.000109
     12          6           0       -1.604784    1.119278   -0.452707
     13          6           0       -1.604752   -1.119433    0.452341
     14          6           0       -0.216850    1.125770   -0.449243
     15          6           0       -0.216813   -1.125977    0.448670
     16          6           0        0.504919   -0.000106   -0.000309
     17          1           0       -2.141671    1.985727   -0.840835
     18          1           0       -2.141597   -1.985891    0.840507
     19          1           0        0.315693    1.995203   -0.838189
     20          1           0        0.315745   -1.995465    0.837475
     21          1           0       -6.466484   -2.093156   -0.514265
     22          6           0        1.942874   -0.000086   -0.000402
     23          6           0        3.143323   -0.702637    0.003392
     24          6           0        3.143127    0.702801   -0.003915
     25          7           0        3.787080   -1.855019   -0.001668
     26          7           0        3.786774    1.855252    0.001097
     27          6           0        3.068411   -3.122520   -0.167733
     28          1           0        3.187886   -3.748580    0.728596
     29          1           0        2.005788   -2.927607   -0.341041
     30          1           0        3.471162   -3.663551   -1.036238
     31          6           0        5.245121   -1.944160    0.100275
     32          1           0        5.509149   -2.713998    0.838669
     33          1           0        5.688951   -2.217262   -0.869111
     34          1           0        5.659251   -0.989594    0.439085
     35          6           0        3.068047    3.122616    0.168130
     36          1           0        3.188116    3.749602   -0.727455
     37          1           0        2.005304    2.927538    0.340531
     38          1           0        3.470192    3.662707    1.037509
     39          6           0        5.244950    1.944232   -0.099391
     40          1           0        5.509538    2.718440   -0.832954
     41          1           0        5.688631    2.211256    0.871774
     42          1           0        5.658779    0.991638   -0.444142
 ---------------------------------------------------------------------

 SCF Done:  E(ULC-wHPBE) =  -845.015834858     A.U. after   33 cycles
 SCF Done:  E(ULC-wHPBE) =  -845.015848618     a.u. after    2 cycles

 The electronic state is 2-A.
 Alpha  occ. eigenvalues --  -14.42820 -14.42819 -10.35793 -10.35760 -10.31785
 Alpha  occ. eigenvalues --  -10.31374 -10.30172 -10.29894 -10.28076 -10.28074
 Alpha  occ. eigenvalues --  -10.27934 -10.27933 -10.27748 -10.27748 -10.27486
 Alpha  occ. eigenvalues --  -10.27485 -10.27236 -10.26796 -10.26794 -10.25416
 Alpha  occ. eigenvalues --  -10.25415  -1.29864  -1.26997  -1.21982  -1.18926
 Alpha  occ. eigenvalues --   -1.16275  -1.10604  -1.06898  -1.05215  -1.04745
 Alpha  occ. eigenvalues --   -1.03040  -1.02669  -1.01836  -1.00585  -0.96527
 Alpha  occ. eigenvalues --   -0.94218  -0.90617  -0.90115  -0.87791  -0.85586
 Alpha  occ. eigenvalues --   -0.85342  -0.83738  -0.80909  -0.80808  -0.80351
 Alpha  occ. eigenvalues --   -0.78944  -0.78726  -0.78119  -0.76229  -0.75807
 Alpha  occ. eigenvalues --   -0.74600  -0.74436  -0.73888  -0.72566  -0.72228
 Alpha  occ. eigenvalues --   -0.71928  -0.71401  -0.70651  -0.70178  -0.70014
 Alpha  occ. eigenvalues --   -0.69647  -0.69561  -0.68962  -0.68109  -0.67183
 Alpha  occ. eigenvalues --   -0.66462  -0.65114  -0.64469  -0.62345  -0.61162
 Alpha  occ. eigenvalues --   -0.58889  -0.57422  -0.56973  -0.53112
 Alpha virt. eigenvalues --   -0.25828  -0.20572  -0.19410  -0.18569  -0.15502
 Alpha virt. eigenvalues --   -0.13907  -0.13151  -0.09502  -0.09320  -0.08036
 Alpha virt. eigenvalues --   -0.07935  -0.07572  -0.06855  -0.06161  -0.06050

  Beta  occ. eigenvalues --  -14.42674 -14.42673 -10.35779 -10.35746 -10.31863
  Beta  occ. eigenvalues --  -10.31105 -10.30093 -10.29632 -10.28025 -10.28023
  Beta  occ. eigenvalues --  -10.27917 -10.27916 -10.27753 -10.27752 -10.27491
  Beta  occ. eigenvalues --  -10.27490 -10.26846 -10.26663 -10.26661 -10.25473
  Beta  occ. eigenvalues --  -10.25471  -1.29703  -1.26792  -1.21799  -1.18527
  Beta  occ. eigenvalues --   -1.15797  -1.10104  -1.06784  -1.04589  -1.04417
  Beta  occ. eigenvalues --   -1.02962  -1.02636  -1.01805  -1.00521  -0.96295
  Beta  occ. eigenvalues --   -0.94011  -0.90294  -0.89796  -0.87668  -0.85490
  Beta  occ. eigenvalues --   -0.85252  -0.83614  -0.80713  -0.80687  -0.80215
  Beta  occ. eigenvalues --   -0.78786  -0.78604  -0.77848  -0.75839  -0.75614
  Beta  occ. eigenvalues --   -0.74534  -0.74277  -0.73514  -0.72403  -0.72170
  Beta  occ. eigenvalues --   -0.71895  -0.70878  -0.70501  -0.70082  -0.69951
  Beta  occ. eigenvalues --   -0.69539  -0.69062  -0.68104  -0.67682  -0.67088
  Beta  occ. eigenvalues --   -0.66292  -0.65014  -0.64186  -0.60569  -0.59838
  Beta  occ. eigenvalues --   -0.58708  -0.56676  -0.52894
  Beta virt. eigenvalues --   -0.38171  -0.24760  -0.19912  -0.17656  -0.17583
  Beta virt. eigenvalues --   -0.14989  -0.13110  -0.12919  -0.09481  -0.09275
  Beta virt. eigenvalues --   -0.07987  -0.07883  -0.07503  -0.06815  -0.06014

 Mulliken charges and spin densities:
               1          2
     1  C   -0.075315  -0.059964
     2  C   -0.043706   0.315309
     3  C   -0.085189   0.098144
     4  C   -0.075312  -0.059960
     5  C    0.018372   0.210315
     6  C   -0.085194   0.098137
     7  H    0.195004  -0.014530
     8  H    0.189515  -0.005951
     9  H    0.182927   0.001972
    10  H    0.189514  -0.005951
    11  C    0.030200   0.024139
    12  C   -0.120693   0.118902
    13  C   -0.120708   0.118899
    14  C   -0.092556  -0.081273
    15  C   -0.092586  -0.081261
    16  C    0.204744   0.211172
    17  H    0.194823  -0.006048
    18  H    0.194814  -0.006049
    19  H    0.177979   0.002715
    20  H    0.177935   0.002715
    21  H    0.182927   0.001972
    22  C   -0.488285  -0.070442
    23  C    0.069127   0.014822
    24  C    0.069136   0.014831
    25  N    0.035103   0.071459
    26  N    0.035057   0.071461
    27  C   -0.237008  -0.003923
    28  H    0.192934   0.003850
    29  H    0.135773   0.000305
    30  H    0.189064   0.003578
    31  C   -0.244702  -0.003535
    32  H    0.186364   0.003136
    33  H    0.197809   0.003684
    34  H    0.146054   0.000140
    35  C   -0.237113  -0.003919
    36  H    0.192996   0.003842
    37  H    0.135677   0.000305
    38  H    0.189137   0.003585
    39  C   -0.245438  -0.003543
    40  H    0.186389   0.003106
    41  H    0.197981   0.003703
    42  H    0.146450   0.000152
 Sum of Mulliken charges =   2.00000   1.00000

 Dipole moment (field-independent basis, Debye):
    X=              2.3327    Y=              0.0001    Z=              0.0021  Tot=              2.3327
 Quadrupole moment (field-independent basis, Debye-Ang):
   XX=             83.0289   YY=            -66.8068   ZZ=           -120.3412
   XY=              0.0003   XZ=              0.0060   YZ=             -0.2649

 Normal termination of Gaussian 16 at Thu Jan 21 02:28:20 2021.
