 Gaussian 16, Revision A.03,
 Gaussian 16:  EM64L-G16RevA.03 25-Dec-2016

 ----------------------------------------------------------------------
 #P LC-wHPBE/TZVP iop(3/107=0208100000, 3/108=0208100000) scf=(conver=6
 ,fermi,ndamp=35,noincfock,novaracc,vshift=500,xqc)
 ----------------------------------------------------------------------

 ----------
 H21 C19 N2
 ----------
 Symbolic Z-matrix:
 Charge =  1 Multiplicity = 1

                         Standard orientation:
 ---------------------------------------------------------------------
 Center     Atomic      Atomic             Coordinates (Angstroms)
 Number     Number       Type             X           Y           Z
 ---------------------------------------------------------------------
      1          6           0       -5.924302   -1.175178   -0.282560
      2          6           0       -6.625626    0.000025    0.000251
      3          6           0       -4.530324   -1.177472   -0.278212
      4          6           0       -5.924206    1.175202    0.282951
      5          6           0       -3.810936   -0.000036    0.000021
      6          6           0       -4.530233    1.177435    0.278371
      7          1           0       -7.716547    0.000056    0.000331
      8          1           0       -3.994064   -2.094974   -0.527939
      9          1           0       -6.466302    2.093210    0.514746
     10          1           0       -3.993880    2.094904    0.528010
     11          6           0       -2.333716   -0.000062   -0.000109
     12          6           0       -1.604784    1.119278   -0.452707
     13          6           0       -1.604752   -1.119433    0.452341
     14          6           0       -0.216850    1.125770   -0.449243
     15          6           0       -0.216813   -1.125977    0.448670
     16          6           0        0.504919   -0.000106   -0.000309
     17          1           0       -2.141671    1.985727   -0.840835
     18          1           0       -2.141597   -1.985891    0.840507
     19          1           0        0.315693    1.995203   -0.838189
     20          1           0        0.315745   -1.995465    0.837475
     21          1           0       -6.466484   -2.093156   -0.514265
     22          6           0        1.942874   -0.000086   -0.000402
     23          6           0        3.143323   -0.702637    0.003392
     24          6           0        3.143127    0.702801   -0.003915
     25          7           0        3.787080   -1.855019   -0.001668
     26          7           0        3.786774    1.855252    0.001097
     27          6           0        3.068411   -3.122520   -0.167733
     28          1           0        3.187886   -3.748580    0.728596
     29          1           0        2.005788   -2.927607   -0.341041
     30          1           0        3.471162   -3.663551   -1.036238
     31          6           0        5.245121   -1.944160    0.100275
     32          1           0        5.509149   -2.713998    0.838669
     33          1           0        5.688951   -2.217262   -0.869111
     34          1           0        5.659251   -0.989594    0.439085
     35          6           0        3.068047    3.122616    0.168130
     36          1           0        3.188116    3.749602   -0.727455
     37          1           0        2.005304    2.927538    0.340531
     38          1           0        3.470192    3.662707    1.037509
     39          6           0        5.244950    1.944232   -0.099391
     40          1           0        5.509538    2.718440   -0.832954
     41          1           0        5.688631    2.211256    0.871774
     42          1           0        5.658779    0.991638   -0.444142
 ---------------------------------------------------------------------

 SCF Done:  E(RLC-wHPBE) =  -845.375390411     A.U. after   16 cycles

 The electronic state is 1-A.
 Alpha  occ. eigenvalues --  -14.30233 -14.30232 -10.22990 -10.22957 -10.19282
 Alpha  occ. eigenvalues --  -10.17232 -10.17231 -10.16826 -10.16826 -10.14960
 Alpha  occ. eigenvalues --  -10.13183 -10.13098 -10.13097 -10.11759 -10.11758
 Alpha  occ. eigenvalues --  -10.10498 -10.09097 -10.09096 -10.08531 -10.08519
 Alpha  occ. eigenvalues --  -10.08467  -1.17468  -1.14967  -1.09394  -1.02581
 Alpha  occ. eigenvalues --   -0.98710  -0.94146  -0.92104  -0.91910  -0.91394
 Alpha  occ. eigenvalues --   -0.90461  -0.89434  -0.87700  -0.87639  -0.80877
 Alpha  occ. eigenvalues --   -0.78605  -0.74768  -0.74749  -0.73648  -0.73456
 Alpha  occ. eigenvalues --   -0.72989  -0.69575  -0.69198  -0.68421  -0.67232
 Alpha  occ. eigenvalues --   -0.67206  -0.64504  -0.63459  -0.61948  -0.61767
 Alpha  occ. eigenvalues --   -0.61515  -0.60585  -0.60121  -0.59952  -0.59750
 Alpha  occ. eigenvalues --   -0.59163  -0.59151  -0.58686  -0.58088  -0.57747
 Alpha  occ. eigenvalues --   -0.56233  -0.56186  -0.55176  -0.53290  -0.52648
 Alpha  occ. eigenvalues --   -0.51606  -0.49958  -0.48838  -0.48267  -0.46908
 Alpha  occ. eigenvalues --   -0.44239  -0.42223  -0.40601  -0.38470
 Alpha virt. eigenvalues --   -0.12647  -0.07194  -0.05045  -0.04838  -0.03960
 Alpha virt. eigenvalues --   -0.03563  -0.01079  -0.00584   0.00120   0.01054
 Alpha virt. eigenvalues --    0.01286   0.02172   0.03267   0.03755   0.04032

 Mulliken charges:
               1
     1  C   -0.092883
     2  C   -0.117871
     3  C   -0.120812
     4  C   -0.092881
     5  C   -0.001911
     6  C   -0.120815
     7  H    0.131656
     8  H    0.138990
     9  H    0.125625
    10  H    0.138990
    11  C    0.014433
    12  C   -0.157482
    13  C   -0.157488
    14  C   -0.099664
    15  C   -0.099696
    16  C    0.171548
    17  H    0.157908
    18  H    0.157901
    19  H    0.138786
    20  H    0.138745
    21  H    0.125625
    22  C   -0.462919
    23  C    0.050188
    24  C    0.050234
    25  N    0.010853
    26  N    0.010806
    27  C   -0.239094
    28  H    0.169184
    29  H    0.149778
    30  H    0.164503
    31  C   -0.242673
    32  H    0.165891
    33  H    0.174475
    34  H    0.139097
    35  C   -0.239212
    36  H    0.169246
    37  H    0.149696
    38  H    0.164576
    39  C   -0.243353
    40  H    0.165944
    41  H    0.174623
    42  H    0.139450
 Sum of Mulliken charges =   1.00000

 Dipole moment (field-independent basis, Debye):
    X=             11.6701    Y=              0.0004    Z=              0.0017  Tot=             11.6701
 Quadrupole moment (field-independent basis, Debye-Ang):
   XX=            -23.6500   YY=            -84.5160   ZZ=           -126.0705
   XY=              0.0018   XZ=              0.0060   YZ=             -0.3165

 Normal termination of Gaussian 16 at Thu Jan 21 05:37:53 2021.
