 Gaussian 16, Revision A.03,
 Gaussian 16:  EM64L-G16RevA.03 25-Dec-2016

 ----------------------------------------------------------------------
 #P LC-wHPBE/TZVP iop(3/107=0186400000, 3/108=0186400000) scf=(conver=6
 ,fermi,ndamp=35,noincfock,novaracc,vshift=500,xqc)
 ----------------------------------------------------------------------

 ----------
 H21 C19 N2
 ----------
 Symbolic Z-matrix:
 Charge =  2 Multiplicity = 2

                         Standard orientation:
 ---------------------------------------------------------------------
 Center     Atomic      Atomic             Coordinates (Angstroms)
 Number     Number       Type             X           Y           Z
 ---------------------------------------------------------------------
      1          6           0       -5.924302   -1.175178   -0.282560
      2          6           0       -6.625626    0.000025    0.000251
      3          6           0       -4.530324   -1.177472   -0.278212
      4          6           0       -5.924206    1.175202    0.282951
      5          6           0       -3.810936   -0.000036    0.000021
      6          6           0       -4.530233    1.177435    0.278371
      7          1           0       -7.716547    0.000056    0.000331
      8          1           0       -3.994064   -2.094974   -0.527939
      9          1           0       -6.466302    2.093210    0.514746
     10          1           0       -3.993880    2.094904    0.528010
     11          6           0       -2.333716   -0.000062   -0.000109
     12          6           0       -1.604784    1.119278   -0.452707
     13          6           0       -1.604752   -1.119433    0.452341
     14          6           0       -0.216850    1.125770   -0.449243
     15          6           0       -0.216813   -1.125977    0.448670
     16          6           0        0.504919   -0.000106   -0.000309
     17          1           0       -2.141671    1.985727   -0.840835
     18          1           0       -2.141597   -1.985891    0.840507
     19          1           0        0.315693    1.995203   -0.838189
     20          1           0        0.315745   -1.995465    0.837475
     21          1           0       -6.466484   -2.093156   -0.514265
     22          6           0        1.942874   -0.000086   -0.000402
     23          6           0        3.143323   -0.702637    0.003392
     24          6           0        3.143127    0.702801   -0.003915
     25          7           0        3.787080   -1.855019   -0.001668
     26          7           0        3.786774    1.855252    0.001097
     27          6           0        3.068411   -3.122520   -0.167733
     28          1           0        3.187886   -3.748580    0.728596
     29          1           0        2.005788   -2.927607   -0.341041
     30          1           0        3.471162   -3.663551   -1.036238
     31          6           0        5.245121   -1.944160    0.100275
     32          1           0        5.509149   -2.713998    0.838669
     33          1           0        5.688951   -2.217262   -0.869111
     34          1           0        5.659251   -0.989594    0.439085
     35          6           0        3.068047    3.122616    0.168130
     36          1           0        3.188116    3.749602   -0.727455
     37          1           0        2.005304    2.927538    0.340531
     38          1           0        3.470192    3.662707    1.037509
     39          6           0        5.244950    1.944232   -0.099391
     40          1           0        5.509538    2.718440   -0.832954
     41          1           0        5.688631    2.211256    0.871774
     42          1           0        5.658779    0.991638   -0.444142
 ---------------------------------------------------------------------

 SCF Done:  E(ULC-wHPBE) =  -844.965597124     A.U. after   33 cycles
 SCF Done:  E(ULC-wHPBE) =  -844.965605552     a.u. after    2 cycles

 The electronic state is 2-A.
 Alpha  occ. eigenvalues --  -14.40860 -14.40859 -10.33390 -10.33357 -10.29564
 Alpha  occ. eigenvalues --  -10.28833 -10.27550 -10.26800 -10.25551 -10.25551
 Alpha  occ. eigenvalues --  -10.25491 -10.25489 -10.25422 -10.25421 -10.25326
 Alpha  occ. eigenvalues --  -10.25325 -10.24157 -10.23846 -10.23844 -10.22534
 Alpha  occ. eigenvalues --  -10.22532  -1.27549  -1.24804  -1.19745  -1.16117
 Alpha  occ. eigenvalues --   -1.13292  -1.07866  -1.04320  -1.02427  -1.01847
 Alpha  occ. eigenvalues --   -1.00870  -1.00555  -0.99775  -0.98561  -0.94108
 Alpha  occ. eigenvalues --   -0.91803  -0.88036  -0.87623  -0.85619  -0.83798
 Alpha  occ. eigenvalues --   -0.83511  -0.81409  -0.79033  -0.79018  -0.78491
 Alpha  occ. eigenvalues --   -0.76949  -0.76727  -0.76401  -0.73947  -0.73817
 Alpha  occ. eigenvalues --   -0.72668  -0.72207  -0.72078  -0.70808  -0.70347
 Alpha  occ. eigenvalues --   -0.70199  -0.69441  -0.68766  -0.68619  -0.68477
 Alpha  occ. eigenvalues --   -0.68079  -0.67705  -0.67131  -0.66619  -0.65632
 Alpha  occ. eigenvalues --   -0.64744  -0.63099  -0.62467  -0.60735  -0.59896
 Alpha  occ. eigenvalues --   -0.57552  -0.55847  -0.55290  -0.52202
 Alpha virt. eigenvalues --   -0.26617  -0.21577  -0.20179  -0.19235  -0.16985
 Alpha virt. eigenvalues --   -0.15150  -0.14415  -0.10668  -0.10391  -0.09461
 Alpha virt. eigenvalues --   -0.09237  -0.08437  -0.08021  -0.07528  -0.07335

  Beta  occ. eigenvalues --  -14.40694 -14.40693 -10.33379 -10.33346 -10.29624
  Beta  occ. eigenvalues --  -10.28584 -10.27450 -10.26559 -10.25556 -10.25555
  Beta  occ. eigenvalues --  -10.25546 -10.25545 -10.25331 -10.25329 -10.25298
  Beta  occ. eigenvalues --  -10.25296 -10.23805 -10.23727 -10.23725 -10.22573
  Beta  occ. eigenvalues --  -10.22572  -1.27364  -1.24571  -1.19544  -1.15747
  Beta  occ. eigenvalues --   -1.12846  -1.07405  -1.04209  -1.01790  -1.01689
  Beta  occ. eigenvalues --   -1.00765  -1.00517  -0.99738  -0.98485  -0.93883
  Beta  occ. eigenvalues --   -0.91597  -0.87742  -0.87326  -0.85498  -0.83696
  Beta  occ. eigenvalues --   -0.83414  -0.81292  -0.78925  -0.78780  -0.78374
  Beta  occ. eigenvalues --   -0.76811  -0.76569  -0.76119  -0.73633  -0.73607
  Beta  occ. eigenvalues --   -0.72602  -0.72060  -0.71775  -0.70720  -0.70313
  Beta  occ. eigenvalues --   -0.70048  -0.69087  -0.68619  -0.68518  -0.68409
  Beta  occ. eigenvalues --   -0.68055  -0.67408  -0.66605  -0.65899  -0.65542
  Beta  occ. eigenvalues --   -0.64574  -0.62997  -0.62189  -0.59283  -0.58728
  Beta  occ. eigenvalues --   -0.57346  -0.54959  -0.51985
  Beta virt. eigenvalues --   -0.38574  -0.25614  -0.21004  -0.18697  -0.18451
  Beta virt. eigenvalues --   -0.16498  -0.14367  -0.14240  -0.10642  -0.10349
  Beta virt. eigenvalues --   -0.09415  -0.09179  -0.08368  -0.07992  -0.07305

 Mulliken charges and spin densities:
               1          2
     1  C   -0.070865  -0.043301
     2  C   -0.046066   0.281402
     3  C   -0.081506   0.086730
     4  C   -0.070863  -0.043299
     5  C    0.014365   0.192618
     6  C   -0.081510   0.086724
     7  H    0.188901  -0.013173
     8  H    0.182352  -0.005318
     9  H    0.176893   0.001377
    10  H    0.182351  -0.005318
    11  C    0.035115   0.045524
    12  C   -0.119298   0.098685
    13  C   -0.119310   0.098680
    14  C   -0.088892  -0.059129
    15  C   -0.088920  -0.059115
    16  C    0.209756   0.193583
    17  H    0.189940  -0.005163
    18  H    0.189932  -0.005164
    19  H    0.172251   0.001831
    20  H    0.172208   0.001831
    21  H    0.176894   0.001377
    22  C   -0.489248  -0.057065
    23  C    0.068503   0.011061
    24  C    0.068502   0.011070
    25  N    0.042575   0.081916
    26  N    0.042544   0.081921
    27  C   -0.241723  -0.003926
    28  H    0.194872   0.004605
    29  H    0.139488   0.000240
    30  H    0.191226   0.004239
    31  C   -0.249055  -0.003671
    32  H    0.188665   0.003727
    33  H    0.199751   0.004479
    34  H    0.148582   0.000166
    35  C   -0.241834  -0.003922
    36  H    0.194935   0.004596
    37  H    0.139394   0.000240
    38  H    0.191302   0.004248
    39  C   -0.249782  -0.003679
    40  H    0.188690   0.003691
    41  H    0.199921   0.004501
    42  H    0.148966   0.000181
 Sum of Mulliken charges =   2.00000   1.00000

 Dipole moment (field-independent basis, Debye):
    X=              3.3706    Y=              0.0001    Z=              0.0021  Tot=              3.3706
 Quadrupole moment (field-independent basis, Debye-Ang):
   XX=             81.4317   YY=            -66.3302   ZZ=           -120.4013
   XY=              0.0001   XZ=              0.0064   YZ=             -0.2555

 Normal termination of Gaussian 16 at Thu Jan 21 03:41:12 2021.
