 Gaussian 16, Revision A.03,
 Gaussian 16:  EM64L-G16RevA.03 25-Dec-2016

 ----------------------------------------------------------------------
 #P LC-wHPBE/TZVP iop(3/107=0197900000, 3/108=0197900000) scf=(conver=6
 ,fermi,ndamp=35,noincfock,novaracc,vshift=500,xqc)
 ----------------------------------------------------------------------

 ----------
 H21 C19 N2
 ----------
 Symbolic Z-matrix:
 Charge =  1 Multiplicity = 1

                         Standard orientation:
 ---------------------------------------------------------------------
 Center     Atomic      Atomic             Coordinates (Angstroms)
 Number     Number       Type             X           Y           Z
 ---------------------------------------------------------------------
      1          6           0       -5.924302   -1.175178   -0.282560
      2          6           0       -6.625626    0.000025    0.000251
      3          6           0       -4.530324   -1.177472   -0.278212
      4          6           0       -5.924206    1.175202    0.282951
      5          6           0       -3.810936   -0.000036    0.000021
      6          6           0       -4.530233    1.177435    0.278371
      7          1           0       -7.716547    0.000056    0.000331
      8          1           0       -3.994064   -2.094974   -0.527939
      9          1           0       -6.466302    2.093210    0.514746
     10          1           0       -3.993880    2.094904    0.528010
     11          6           0       -2.333716   -0.000062   -0.000109
     12          6           0       -1.604784    1.119278   -0.452707
     13          6           0       -1.604752   -1.119433    0.452341
     14          6           0       -0.216850    1.125770   -0.449243
     15          6           0       -0.216813   -1.125977    0.448670
     16          6           0        0.504919   -0.000106   -0.000309
     17          1           0       -2.141671    1.985727   -0.840835
     18          1           0       -2.141597   -1.985891    0.840507
     19          1           0        0.315693    1.995203   -0.838189
     20          1           0        0.315745   -1.995465    0.837475
     21          1           0       -6.466484   -2.093156   -0.514265
     22          6           0        1.942874   -0.000086   -0.000402
     23          6           0        3.143323   -0.702637    0.003392
     24          6           0        3.143127    0.702801   -0.003915
     25          7           0        3.787080   -1.855019   -0.001668
     26          7           0        3.786774    1.855252    0.001097
     27          6           0        3.068411   -3.122520   -0.167733
     28          1           0        3.187886   -3.748580    0.728596
     29          1           0        2.005788   -2.927607   -0.341041
     30          1           0        3.471162   -3.663551   -1.036238
     31          6           0        5.245121   -1.944160    0.100275
     32          1           0        5.509149   -2.713998    0.838669
     33          1           0        5.688951   -2.217262   -0.869111
     34          1           0        5.659251   -0.989594    0.439085
     35          6           0        3.068047    3.122616    0.168130
     36          1           0        3.188116    3.749602   -0.727455
     37          1           0        2.005304    2.927538    0.340531
     38          1           0        3.470192    3.662707    1.037509
     39          6           0        5.244950    1.944232   -0.099391
     40          1           0        5.509538    2.718440   -0.832954
     41          1           0        5.688631    2.211256    0.871774
     42          1           0        5.658779    0.991638   -0.444142
 ---------------------------------------------------------------------

 SCF Done:  E(RLC-wHPBE) =  -845.362839053     A.U. after   16 cycles

 The electronic state is 1-A.
 Alpha  occ. eigenvalues --  -14.29671 -14.29669 -10.22352 -10.22319 -10.18665
 Alpha  occ. eigenvalues --  -10.16656 -10.16655 -10.16250 -10.16250 -10.14377
 Alpha  occ. eigenvalues --  -10.12601 -10.12513 -10.12512 -10.11185 -10.11183
 Alpha  occ. eigenvalues --  -10.09932 -10.08532 -10.08530 -10.07968 -10.07957
 Alpha  occ. eigenvalues --  -10.07905  -1.16841  -1.14364  -1.08787  -1.01965
 Alpha  occ. eigenvalues --   -0.98108  -0.93555  -0.91529  -0.91336  -0.90813
 Alpha  occ. eigenvalues --   -0.89900  -0.88879  -0.87131  -0.87077  -0.80339
 Alpha  occ. eigenvalues --   -0.78071  -0.74269  -0.74255  -0.73144  -0.72960
 Alpha  occ. eigenvalues --   -0.72480  -0.69101  -0.68686  -0.67965  -0.66750
 Alpha  occ. eigenvalues --   -0.66725  -0.64046  -0.62995  -0.61505  -0.61305
 Alpha  occ. eigenvalues --   -0.61071  -0.60149  -0.59687  -0.59520  -0.59315
 Alpha  occ. eigenvalues --   -0.58728  -0.58720  -0.58259  -0.57657  -0.57327
 Alpha  occ. eigenvalues --   -0.55807  -0.55772  -0.54742  -0.52892  -0.52212
 Alpha  occ. eigenvalues --   -0.51210  -0.49570  -0.48461  -0.47894  -0.46567
 Alpha  occ. eigenvalues --   -0.43929  -0.41936  -0.40308  -0.38220
 Alpha virt. eigenvalues --   -0.12837  -0.07436  -0.05307  -0.05088  -0.04195
 Alpha virt. eigenvalues --   -0.03817  -0.01307  -0.00857  -0.00129   0.00811
 Alpha virt. eigenvalues --    0.01014   0.01919   0.02990   0.03476   0.03784

 Mulliken charges:
               1
     1  C   -0.091953
     2  C   -0.116532
     3  C   -0.119264
     4  C   -0.091951
     5  C   -0.002712
     6  C   -0.119267
     7  H    0.130690
     8  H    0.137833
     9  H    0.124627
    10  H    0.137833
    11  C    0.015839
    12  C   -0.156571
    13  C   -0.156576
    14  C   -0.099316
    15  C   -0.099348
    16  C    0.173261
    17  H    0.156625
    18  H    0.156618
    19  H    0.137554
    20  H    0.137513
    21  H    0.124627
    22  C   -0.464665
    23  C    0.050260
    24  C    0.050304
    25  N    0.012027
    26  N    0.011983
    27  C   -0.240364
    28  H    0.169318
    29  H    0.150291
    30  H    0.164733
    31  C   -0.243920
    32  H    0.166117
    33  H    0.174598
    34  H    0.139605
    35  C   -0.240483
    36  H    0.169381
    37  H    0.150209
    38  H    0.164806
    39  C   -0.244597
    40  H    0.166170
    41  H    0.174746
    42  H    0.139953
 Sum of Mulliken charges =   1.00000

 Dipole moment (field-independent basis, Debye):
    X=             11.6475    Y=              0.0004    Z=              0.0017  Tot=             11.6475
 Quadrupole moment (field-independent basis, Debye-Ang):
   XX=            -23.6075   YY=            -84.5566   ZZ=           -126.0919
   XY=              0.0018   XZ=              0.0060   YZ=             -0.3117

 Normal termination of Gaussian 16 at Thu Jan 21 03:48:47 2021.
