 Gaussian 16, Revision A.03,
 Gaussian 16:  EM64L-G16RevA.03 25-Dec-2016

 ----------------------------------------------------------------------
 #P LC-wHPBE/TZVP iop(3/107=0208100000, 3/108=0208100000) scf=(conver=6
 ,fermi,ndamp=35,noincfock,novaracc,vshift=500,xqc)
 ----------------------------------------------------------------------

 ----------
 H21 C19 N2
 ----------
 Symbolic Z-matrix:
 Charge =  2 Multiplicity = 2

                         Standard orientation:
 ---------------------------------------------------------------------
 Center     Atomic      Atomic             Coordinates (Angstroms)
 Number     Number       Type             X           Y           Z
 ---------------------------------------------------------------------
      1          6           0       -5.924302   -1.175178   -0.282560
      2          6           0       -6.625626    0.000025    0.000251
      3          6           0       -4.530324   -1.177472   -0.278212
      4          6           0       -5.924206    1.175202    0.282951
      5          6           0       -3.810936   -0.000036    0.000021
      6          6           0       -4.530233    1.177435    0.278371
      7          1           0       -7.716547    0.000056    0.000331
      8          1           0       -3.994064   -2.094974   -0.527939
      9          1           0       -6.466302    2.093210    0.514746
     10          1           0       -3.993880    2.094904    0.528010
     11          6           0       -2.333716   -0.000062   -0.000109
     12          6           0       -1.604784    1.119278   -0.452707
     13          6           0       -1.604752   -1.119433    0.452341
     14          6           0       -0.216850    1.125770   -0.449243
     15          6           0       -0.216813   -1.125977    0.448670
     16          6           0        0.504919   -0.000106   -0.000309
     17          1           0       -2.141671    1.985727   -0.840835
     18          1           0       -2.141597   -1.985891    0.840507
     19          1           0        0.315693    1.995203   -0.838189
     20          1           0        0.315745   -1.995465    0.837475
     21          1           0       -6.466484   -2.093156   -0.514265
     22          6           0        1.942874   -0.000086   -0.000402
     23          6           0        3.143323   -0.702637    0.003392
     24          6           0        3.143127    0.702801   -0.003915
     25          7           0        3.787080   -1.855019   -0.001668
     26          7           0        3.786774    1.855252    0.001097
     27          6           0        3.068411   -3.122520   -0.167733
     28          1           0        3.187886   -3.748580    0.728596
     29          1           0        2.005788   -2.927607   -0.341041
     30          1           0        3.471162   -3.663551   -1.036238
     31          6           0        5.245121   -1.944160    0.100275
     32          1           0        5.509149   -2.713998    0.838669
     33          1           0        5.688951   -2.217262   -0.869111
     34          1           0        5.659251   -0.989594    0.439085
     35          6           0        3.068047    3.122616    0.168130
     36          1           0        3.188116    3.749602   -0.727455
     37          1           0        2.005304    2.927538    0.340531
     38          1           0        3.470192    3.662707    1.037509
     39          6           0        5.244950    1.944232   -0.099391
     40          1           0        5.509538    2.718440   -0.832954
     41          1           0        5.688631    2.211256    0.871774
     42          1           0        5.658779    0.991638   -0.444142
 ---------------------------------------------------------------------

 SCF Done:  E(ULC-wHPBE) =  -844.990708177     A.U. after   33 cycles
 SCF Done:  E(ULC-wHPBE) =  -844.990718585     a.u. after    2 cycles

 The electronic state is 2-A.
 Alpha  occ. eigenvalues --  -14.41819 -14.41818 -10.34565 -10.34532 -10.30648
 Alpha  occ. eigenvalues --  -10.30093 -10.28853 -10.28327 -10.26747 -10.26745
 Alpha  occ. eigenvalues --  -10.26689 -10.26689 -10.26628 -10.26628 -10.26383
 Alpha  occ. eigenvalues --  -10.26382 -10.25675 -10.25304 -10.25303 -10.23957
 Alpha  occ. eigenvalues --  -10.23956  -1.28681  -1.25879  -1.20845  -1.17505
 Alpha  occ. eigenvalues --   -1.14771  -1.09226  -1.05603  -1.03813  -1.03288
 Alpha  occ. eigenvalues --   -1.01945  -1.01601  -1.00798  -0.99566  -0.95319
 Alpha  occ. eigenvalues --   -0.93013  -0.89331  -0.88872  -0.86714  -0.84695
 Alpha  occ. eigenvalues --   -0.84426  -0.82584  -0.79972  -0.79919  -0.79424
 Alpha  occ. eigenvalues --   -0.77852  -0.77846  -0.77266  -0.75102  -0.74828
 Alpha  occ. eigenvalues --   -0.73648  -0.73332  -0.72992  -0.71667  -0.71254
 Alpha  occ. eigenvalues --   -0.71146  -0.70431  -0.69721  -0.69406  -0.69254
 Alpha  occ. eigenvalues --   -0.68829  -0.68659  -0.68109  -0.67372  -0.66420
 Alpha  occ. eigenvalues --   -0.65620  -0.64124  -0.63485  -0.61567  -0.60541
 Alpha  occ. eigenvalues --   -0.58253  -0.56653  -0.56161  -0.52678
 Alpha virt. eigenvalues --   -0.26198  -0.21052  -0.19767  -0.18876  -0.16217
 Alpha virt. eigenvalues --   -0.14505  -0.13752  -0.10055  -0.09826  -0.08716
 Alpha virt. eigenvalues --   -0.08557  -0.07982  -0.07408  -0.06822  -0.06658

  Beta  occ. eigenvalues --  -14.41664 -14.41662 -10.34553 -10.34520 -10.30717
  Beta  occ. eigenvalues --  -10.29834 -10.28762 -10.28076 -10.26771 -10.26770
  Beta  occ. eigenvalues --  -10.26632 -10.26632 -10.26597 -10.26595 -10.26388
  Beta  occ. eigenvalues --  -10.26387 -10.25305 -10.25178 -10.25176 -10.24005
  Beta  occ. eigenvalues --  -10.24003  -1.28509  -1.25661  -1.20654  -1.17122
  Beta  occ. eigenvalues --   -1.14309  -1.08745  -1.05491  -1.03130  -1.03095
  Beta  occ. eigenvalues --   -1.01857  -1.01565  -1.00764  -0.99496  -0.95090
  Beta  occ. eigenvalues --   -0.92807  -0.89023  -0.88564  -0.86593  -0.84596
  Beta  occ. eigenvalues --   -0.84333  -0.82464  -0.79826  -0.79737  -0.79299
  Beta  occ. eigenvalues --   -0.77723  -0.77689  -0.76990  -0.74737  -0.74639
  Beta  occ. eigenvalues --   -0.73583  -0.73179  -0.72656  -0.71555  -0.71140
  Beta  occ. eigenvalues --   -0.71113  -0.69996  -0.69572  -0.69310  -0.69188
  Beta  occ. eigenvalues --   -0.68807  -0.68254  -0.67362  -0.66823  -0.66328
  Beta  occ. eigenvalues --   -0.65450  -0.64022  -0.63204  -0.59936  -0.59303
  Beta  occ. eigenvalues --   -0.58060  -0.55844  -0.52446
  Beta virt. eigenvalues --   -0.38369  -0.25163  -0.20435  -0.18152  -0.17995
  Beta virt. eigenvalues --   -0.15716  -0.13708  -0.13557  -0.10032  -0.09783
  Beta virt. eigenvalues --   -0.08669  -0.08502  -0.07913  -0.07375  -0.06628

 Mulliken charges and spin densities:
               1          2
     1  C   -0.072842  -0.051244
     2  C   -0.044867   0.297640
     3  C   -0.083107   0.092456
     4  C   -0.072839  -0.051241
     5  C    0.016455   0.201153
     6  C   -0.083112   0.092450
     7  H    0.191744  -0.013831
     8  H    0.185713  -0.005636
     9  H    0.179687   0.001663
    10  H    0.185712  -0.005636
    11  C    0.032889   0.036037
    12  C   -0.119823   0.108376
    13  C   -0.119836   0.108372
    14  C   -0.090483  -0.069734
    15  C   -0.090512  -0.069721
    16  C    0.206971   0.202392
    17  H    0.192201  -0.005595
    18  H    0.192192  -0.005596
    19  H    0.174905   0.002256
    20  H    0.174862   0.002256
    21  H    0.179687   0.001663
    22  C   -0.489273  -0.064206
    23  C    0.068750   0.012967
    24  C    0.068753   0.012975
    25  N    0.039290   0.076443
    26  N    0.039251   0.076446
    27  C   -0.239063  -0.003930
    28  H    0.193763   0.004205
    29  H    0.137514   0.000273
    30  H    0.190030   0.003889
    31  C   -0.246610  -0.003607
    32  H    0.187400   0.003415
    33  H    0.198632   0.004054
    34  H    0.147254   0.000152
    35  C   -0.239171  -0.003926
    36  H    0.193825   0.004196
    37  H    0.137420   0.000273
    38  H    0.190104   0.003896
    39  C   -0.247341  -0.003615
    40  H    0.187425   0.003383
    41  H    0.198803   0.004074
    42  H    0.147644   0.000166
 Sum of Mulliken charges =   2.00000   1.00000

 Dipole moment (field-independent basis, Debye):
    X=              2.8431    Y=              0.0001    Z=              0.0021  Tot=              2.8431
 Quadrupole moment (field-independent basis, Debye-Ang):
   XX=             82.1851   YY=            -66.5809   ZZ=           -120.3702
   XY=              0.0002   XZ=              0.0062   YZ=             -0.2607

 Normal termination of Gaussian 16 at Thu Jan 21 06:06:31 2021.
