 Gaussian 16, Revision A.03,
 Gaussian 16:  EM64L-G16RevA.03 25-Dec-2016

 ----------------------------------------------------------------------
 #P LC-wHPBE/TZVP iop(3/107=0205000000, 3/108=0205000000) scf=(conver=6
 ,fermi,ndamp=35,noincfock,novaracc,vshift=500,xqc)
 ----------------------------------------------------------------------

 ----------
 H21 C19 N2
 ----------
 Symbolic Z-matrix:
 Charge =  2 Multiplicity = 2

                         Standard orientation:
 ---------------------------------------------------------------------
 Center     Atomic      Atomic             Coordinates (Angstroms)
 Number     Number       Type             X           Y           Z
 ---------------------------------------------------------------------
      1          6           0       -5.924302   -1.175178   -0.282560
      2          6           0       -6.625626    0.000025    0.000251
      3          6           0       -4.530324   -1.177472   -0.278212
      4          6           0       -5.924206    1.175202    0.282951
      5          6           0       -3.810936   -0.000036    0.000021
      6          6           0       -4.530233    1.177435    0.278371
      7          1           0       -7.716547    0.000056    0.000331
      8          1           0       -3.994064   -2.094974   -0.527939
      9          1           0       -6.466302    2.093210    0.514746
     10          1           0       -3.993880    2.094904    0.528010
     11          6           0       -2.333716   -0.000062   -0.000109
     12          6           0       -1.604784    1.119278   -0.452707
     13          6           0       -1.604752   -1.119433    0.452341
     14          6           0       -0.216850    1.125770   -0.449243
     15          6           0       -0.216813   -1.125977    0.448670
     16          6           0        0.504919   -0.000106   -0.000309
     17          1           0       -2.141671    1.985727   -0.840835
     18          1           0       -2.141597   -1.985891    0.840507
     19          1           0        0.315693    1.995203   -0.838189
     20          1           0        0.315745   -1.995465    0.837475
     21          1           0       -6.466484   -2.093156   -0.514265
     22          6           0        1.942874   -0.000086   -0.000402
     23          6           0        3.143323   -0.702637    0.003392
     24          6           0        3.143127    0.702801   -0.003915
     25          7           0        3.787080   -1.855019   -0.001668
     26          7           0        3.786774    1.855252    0.001097
     27          6           0        3.068411   -3.122520   -0.167733
     28          1           0        3.187886   -3.748580    0.728596
     29          1           0        2.005788   -2.927607   -0.341041
     30          1           0        3.471162   -3.663551   -1.036238
     31          6           0        5.245121   -1.944160    0.100275
     32          1           0        5.509149   -2.713998    0.838669
     33          1           0        5.688951   -2.217262   -0.869111
     34          1           0        5.659251   -0.989594    0.439085
     35          6           0        3.068047    3.122616    0.168130
     36          1           0        3.188116    3.749602   -0.727455
     37          1           0        2.005304    2.927538    0.340531
     38          1           0        3.470192    3.662707    1.037509
     39          6           0        5.244950    1.944232   -0.099391
     40          1           0        5.509538    2.718440   -0.832954
     41          1           0        5.688631    2.211256    0.871774
     42          1           0        5.658779    0.991638   -0.444142
 ---------------------------------------------------------------------

 SCF Done:  E(ULC-wHPBE) =  -844.987155953     A.U. after   33 cycles
 SCF Done:  E(ULC-wHPBE) =  -844.987166040     a.u. after    2 cycles

 The electronic state is 2-A.
 Alpha  occ. eigenvalues --  -14.41682 -14.41681 -10.34397 -10.34363 -10.30492
 Alpha  occ. eigenvalues --  -10.29915 -10.28668 -10.28110 -10.26564 -10.26561
 Alpha  occ. eigenvalues --  -10.26515 -10.26514 -10.26474 -10.26473 -10.26231
 Alpha  occ. eigenvalues --  -10.26230 -10.25459 -10.25097 -10.25095 -10.23754
 Alpha  occ. eigenvalues --  -10.23753  -1.28519  -1.25725  -1.20688  -1.17307
 Alpha  occ. eigenvalues --   -1.14560  -1.09033  -1.05422  -1.03616  -1.03084
 Alpha  occ. eigenvalues --   -1.01793  -1.01452  -1.00653  -0.99423  -0.95148
 Alpha  occ. eigenvalues --   -0.92843  -0.89149  -0.88696  -0.86561  -0.84569
 Alpha  occ. eigenvalues --   -0.84297  -0.82420  -0.79840  -0.79793  -0.79293
 Alpha  occ. eigenvalues --   -0.77727  -0.77690  -0.77145  -0.74940  -0.74687
 Alpha  occ. eigenvalues --   -0.73512  -0.73174  -0.72864  -0.71545  -0.71109
 Alpha  occ. eigenvalues --   -0.71035  -0.70293  -0.69588  -0.69296  -0.69145
 Alpha  occ. eigenvalues --   -0.68725  -0.68521  -0.67980  -0.67267  -0.66310
 Alpha  occ. eigenvalues --   -0.65499  -0.63981  -0.63343  -0.61453  -0.60452
 Alpha  occ. eigenvalues --   -0.58158  -0.56542  -0.56042  -0.52613
 Alpha virt. eigenvalues --   -0.26254  -0.21123  -0.19822  -0.18923  -0.16322
 Alpha virt. eigenvalues --   -0.14594  -0.13842  -0.10138  -0.09902  -0.08817
 Alpha virt. eigenvalues --   -0.08649  -0.08043  -0.07491  -0.06918  -0.06749

  Beta  occ. eigenvalues --  -14.41525 -14.41523 -10.34384 -10.34352 -10.30560
  Beta  occ. eigenvalues --  -10.29656 -10.28576 -10.27860 -10.26597 -10.26596
  Beta  occ. eigenvalues --  -10.26478 -10.26478 -10.26412 -10.26411 -10.26236
  Beta  occ. eigenvalues --  -10.26235 -10.25091 -10.24972 -10.24970 -10.23801
  Beta  occ. eigenvalues --  -10.23799  -1.28345  -1.25505  -1.20496  -1.16926
  Beta  occ. eigenvalues --   -1.14101  -1.08555  -1.05309  -1.02926  -1.02910
  Beta  occ. eigenvalues --   -1.01702  -1.01416  -1.00618  -0.99353  -0.94920
  Beta  occ. eigenvalues --   -0.92636  -0.88843  -0.88390  -0.86440  -0.84470
  Beta  occ. eigenvalues --   -0.84204  -0.82300  -0.79700  -0.79602  -0.79169
  Beta  occ. eigenvalues --   -0.77596  -0.77532  -0.76868  -0.74579  -0.74499
  Beta  occ. eigenvalues --   -0.73446  -0.73023  -0.72533  -0.71438  -0.71001
  Beta  occ. eigenvalues --   -0.70989  -0.69869  -0.69439  -0.69199  -0.69080
  Beta  occ. eigenvalues --   -0.68702  -0.68137  -0.67256  -0.66697  -0.66219
  Beta  occ. eigenvalues --   -0.65328  -0.63879  -0.63062  -0.59845  -0.59225
  Beta  occ. eigenvalues --   -0.57964  -0.55722  -0.52382
  Beta virt. eigenvalues --   -0.38397  -0.25223  -0.20512  -0.18226  -0.18057
  Beta virt. eigenvalues --   -0.15823  -0.13797  -0.13651  -0.10115  -0.09859
  Beta virt. eigenvalues --   -0.08770  -0.08594  -0.07974  -0.07458  -0.06719

 Mulliken charges and spin densities:
               1          2
     1  C   -0.072533  -0.050076
     2  C   -0.045033   0.295258
     3  C   -0.082852   0.091649
     4  C   -0.072530  -0.050073
     5  C    0.016172   0.199908
     6  C   -0.082857   0.091643
     7  H    0.191316  -0.013736
     8  H    0.185211  -0.005591
     9  H    0.179265   0.001621
    10  H    0.185210  -0.005592
    11  C    0.033232   0.037523
    12  C   -0.119728   0.106959
    13  C   -0.119741   0.106955
    14  C   -0.090229  -0.068183
    15  C   -0.090259  -0.068170
    16  C    0.207335   0.201157
    17  H    0.191859  -0.005533
    18  H    0.191851  -0.005534
    19  H    0.174505   0.002194
    20  H    0.174461   0.002194
    21  H    0.179265   0.001621
    22  C   -0.489333  -0.063257
    23  C    0.068708   0.012701
    24  C    0.068711   0.012710
    25  N    0.039809   0.077189
    26  N    0.039771   0.077192
    27  C   -0.239404  -0.003930
    28  H    0.193903   0.004258
    29  H    0.137780   0.000268
    30  H    0.190185   0.003936
    31  C   -0.246925  -0.003617
    32  H    0.187566   0.003457
    33  H    0.198773   0.004110
    34  H    0.147435   0.000154
    35  C   -0.239513  -0.003926
    36  H    0.193966   0.004250
    37  H    0.137685   0.000269
    38  H    0.190260   0.003944
    39  C   -0.247656  -0.003625
    40  H    0.187591   0.003424
    41  H    0.198943   0.004131
    42  H    0.147824   0.000168
 Sum of Mulliken charges =   2.00000   1.00000

 Dipole moment (field-independent basis, Debye):
    X=              2.9167    Y=              0.0001    Z=              0.0021  Tot=              2.9167
 Quadrupole moment (field-independent basis, Debye-Ang):
   XX=             82.0728   YY=            -66.5469   ZZ=           -120.3745
   XY=              0.0002   XZ=              0.0062   YZ=             -0.2601

 Normal termination of Gaussian 16 at Thu Jan 21 03:04:31 2021.
