 Gaussian 16, Revision A.03,
 Gaussian 16:  EM64L-G16RevA.03 25-Dec-2016

 ----------------------------------------------------------------------
 #P LC-wHPBE/TZVP iop(3/107=0205000000, 3/108=0205000000) scf=(conver=6
 ,fermi,ndamp=35,noincfock,novaracc,vshift=500,xqc)
 ----------------------------------------------------------------------

 ----------
 H21 C19 N2
 ----------
 Symbolic Z-matrix:
 Charge =  1 Multiplicity = 1

                         Standard orientation:
 ---------------------------------------------------------------------
 Center     Atomic      Atomic             Coordinates (Angstroms)
 Number     Number       Type             X           Y           Z
 ---------------------------------------------------------------------
      1          6           0       -5.924302   -1.175178   -0.282560
      2          6           0       -6.625626    0.000025    0.000251
      3          6           0       -4.530324   -1.177472   -0.278212
      4          6           0       -5.924206    1.175202    0.282951
      5          6           0       -3.810936   -0.000036    0.000021
      6          6           0       -4.530233    1.177435    0.278371
      7          1           0       -7.716547    0.000056    0.000331
      8          1           0       -3.994064   -2.094974   -0.527939
      9          1           0       -6.466302    2.093210    0.514746
     10          1           0       -3.993880    2.094904    0.528010
     11          6           0       -2.333716   -0.000062   -0.000109
     12          6           0       -1.604784    1.119278   -0.452707
     13          6           0       -1.604752   -1.119433    0.452341
     14          6           0       -0.216850    1.125770   -0.449243
     15          6           0       -0.216813   -1.125977    0.448670
     16          6           0        0.504919   -0.000106   -0.000309
     17          1           0       -2.141671    1.985727   -0.840835
     18          1           0       -2.141597   -1.985891    0.840507
     19          1           0        0.315693    1.995203   -0.838189
     20          1           0        0.315745   -1.995465    0.837475
     21          1           0       -6.466484   -2.093156   -0.514265
     22          6           0        1.942874   -0.000086   -0.000402
     23          6           0        3.143323   -0.702637    0.003392
     24          6           0        3.143127    0.702801   -0.003915
     25          7           0        3.787080   -1.855019   -0.001668
     26          7           0        3.786774    1.855252    0.001097
     27          6           0        3.068411   -3.122520   -0.167733
     28          1           0        3.187886   -3.748580    0.728596
     29          1           0        2.005788   -2.927607   -0.341041
     30          1           0        3.471162   -3.663551   -1.036238
     31          6           0        5.245121   -1.944160    0.100275
     32          1           0        5.509149   -2.713998    0.838669
     33          1           0        5.688951   -2.217262   -0.869111
     34          1           0        5.659251   -0.989594    0.439085
     35          6           0        3.068047    3.122616    0.168130
     36          1           0        3.188116    3.749602   -0.727455
     37          1           0        2.005304    2.927538    0.340531
     38          1           0        3.470192    3.662707    1.037509
     39          6           0        5.244950    1.944232   -0.099391
     40          1           0        5.509538    2.718440   -0.832954
     41          1           0        5.688631    2.211256    0.871774
     42          1           0        5.658779    0.991638   -0.444142
 ---------------------------------------------------------------------

 SCF Done:  E(RLC-wHPBE) =  -845.371595677     A.U. after   16 cycles

 The electronic state is 1-A.
 Alpha  occ. eigenvalues --  -14.30062 -14.30061 -10.22796 -10.22763 -10.19095
 Alpha  occ. eigenvalues --  -10.17057 -10.17056 -10.16651 -10.16651 -10.14783
 Alpha  occ. eigenvalues --  -10.13006 -10.12921 -10.12920 -10.11585 -10.11583
 Alpha  occ. eigenvalues --  -10.10326 -10.08925 -10.08924 -10.08360 -10.08348
 Alpha  occ. eigenvalues --  -10.08296  -1.17277  -1.14784  -1.09210  -1.02394
 Alpha  occ. eigenvalues --   -0.98527  -0.93967  -0.91930  -0.91736  -0.91218
 Alpha  occ. eigenvalues --   -0.90291  -0.89266  -0.87527  -0.87469  -0.80714
 Alpha  occ. eigenvalues --   -0.78444  -0.74617  -0.74600  -0.73495  -0.73306
 Alpha  occ. eigenvalues --   -0.72835  -0.69432  -0.69044  -0.68284  -0.67087
 Alpha  occ. eigenvalues --   -0.67061  -0.64366  -0.63319  -0.61814  -0.61628
 Alpha  occ. eigenvalues --   -0.61382  -0.60453  -0.59990  -0.59822  -0.59618
 Alpha  occ. eigenvalues --   -0.59031  -0.59021  -0.58557  -0.57958  -0.57621
 Alpha  occ. eigenvalues --   -0.56105  -0.56062  -0.55045  -0.53170  -0.52517
 Alpha  occ. eigenvalues --   -0.51487  -0.49842  -0.48725  -0.48155  -0.46806
 Alpha  occ. eigenvalues --   -0.44146  -0.42137  -0.40514  -0.38396
 Alpha virt. eigenvalues --   -0.12704  -0.07265  -0.05123  -0.04912  -0.04030
 Alpha virt. eigenvalues --   -0.03638  -0.01147  -0.00665   0.00046   0.00982
 Alpha virt. eigenvalues --    0.01205   0.02097   0.03185   0.03672   0.03959

 Mulliken charges:
               1
     1  C   -0.092590
     2  C   -0.117455
     3  C   -0.120333
     4  C   -0.092588
     5  C   -0.002143
     6  C   -0.120337
     7  H    0.131352
     8  H    0.138627
     9  H    0.125310
    10  H    0.138628
    11  C    0.014862
    12  C   -0.157199
    13  C   -0.157205
    14  C   -0.099549
    15  C   -0.099581
    16  C    0.172054
    17  H    0.157508
    18  H    0.157501
    19  H    0.138401
    20  H    0.138360
    21  H    0.125310
    22  C   -0.463468
    23  C    0.050208
    24  C    0.050253
    25  N    0.011230
    26  N    0.011184
    27  C   -0.239463
    28  H    0.169219
    29  H    0.149930
    30  H    0.164568
    31  C   -0.243037
    32  H    0.165955
    33  H    0.174506
    34  H    0.139248
    35  C   -0.239581
    36  H    0.169281
    37  H    0.149848
    38  H    0.164640
    39  C   -0.243716
    40  H    0.166008
    41  H    0.174655
    42  H    0.139599
 Sum of Mulliken charges =   1.00000

 Dipole moment (field-independent basis, Debye):
    X=             11.6634    Y=              0.0004    Z=              0.0017  Tot=             11.6634
 Quadrupole moment (field-independent basis, Debye-Ang):
   XX=            -23.6378   YY=            -84.5285   ZZ=           -126.0769
   XY=              0.0018   XZ=              0.0060   YZ=             -0.3150

 Normal termination of Gaussian 16 at Thu Jan 21 02:35:55 2021.
