 Gaussian 16, Revision A.03,
 Gaussian 16:  EM64L-G16RevA.03 25-Dec-2016

 ----------------------------------------------------------------------
 #P LC-wHPBE/TZVP iop(3/107=0328100000, 3/108=0328100000) scf=(conver=6
 ,fermi,ndamp=35,noincfock,novaracc,vshift=500,xqc)
 ----------------------------------------------------------------------

 ----------
 H21 C19 N2
 ----------
 Symbolic Z-matrix:
 Charge =  2 Multiplicity = 2

                         Standard orientation:
 ---------------------------------------------------------------------
 Center     Atomic      Atomic             Coordinates (Angstroms)
 Number     Number       Type             X           Y           Z
 ---------------------------------------------------------------------
      1          6           0       -5.924302   -1.175178   -0.282560
      2          6           0       -6.625626    0.000025    0.000251
      3          6           0       -4.530324   -1.177472   -0.278212
      4          6           0       -5.924206    1.175202    0.282951
      5          6           0       -3.810936   -0.000036    0.000021
      6          6           0       -4.530233    1.177435    0.278371
      7          1           0       -7.716547    0.000056    0.000331
      8          1           0       -3.994064   -2.094974   -0.527939
      9          1           0       -6.466302    2.093210    0.514746
     10          1           0       -3.993880    2.094904    0.528010
     11          6           0       -2.333716   -0.000062   -0.000109
     12          6           0       -1.604784    1.119278   -0.452707
     13          6           0       -1.604752   -1.119433    0.452341
     14          6           0       -0.216850    1.125770   -0.449243
     15          6           0       -0.216813   -1.125977    0.448670
     16          6           0        0.504919   -0.000106   -0.000309
     17          1           0       -2.141671    1.985727   -0.840835
     18          1           0       -2.141597   -1.985891    0.840507
     19          1           0        0.315693    1.995203   -0.838189
     20          1           0        0.315745   -1.995465    0.837475
     21          1           0       -6.466484   -2.093156   -0.514265
     22          6           0        1.942874   -0.000086   -0.000402
     23          6           0        3.143323   -0.702637    0.003392
     24          6           0        3.143127    0.702801   -0.003915
     25          7           0        3.787080   -1.855019   -0.001668
     26          7           0        3.786774    1.855252    0.001097
     27          6           0        3.068411   -3.122520   -0.167733
     28          1           0        3.187886   -3.748580    0.728596
     29          1           0        2.005788   -2.927607   -0.341041
     30          1           0        3.471162   -3.663551   -1.036238
     31          6           0        5.245121   -1.944160    0.100275
     32          1           0        5.509149   -2.713998    0.838669
     33          1           0        5.688951   -2.217262   -0.869111
     34          1           0        5.659251   -0.989594    0.439085
     35          6           0        3.068047    3.122616    0.168130
     36          1           0        3.188116    3.749602   -0.727455
     37          1           0        2.005304    2.927538    0.340531
     38          1           0        3.470192    3.662707    1.037509
     39          6           0        5.244950    1.944232   -0.099391
     40          1           0        5.509538    2.718440   -0.832954
     41          1           0        5.688631    2.211256    0.871774
     42          1           0        5.658779    0.991638   -0.444142
 ---------------------------------------------------------------------

 SCF Done:  E(ULC-wHPBE) =  -845.106820683     A.U. after   33 cycles
 SCF Done:  E(ULC-wHPBE) =  -845.106863939     a.u. after    2 cycles

 The electronic state is 2-A.
 Alpha  occ. eigenvalues --  -14.47335 -14.47334 -10.41272 -10.41236 -10.36936
 Alpha  occ. eigenvalues --  -10.36811 -10.36548 -10.35737 -10.33862 -10.33718
 Alpha  occ. eigenvalues --  -10.33716 -10.33264 -10.33263 -10.33101 -10.33098
 Alpha  occ. eigenvalues --  -10.32739 -10.32739 -10.32429 -10.32427 -10.31634
 Alpha  occ. eigenvalues --  -10.31632  -1.35054  -1.31859  -1.26841  -1.24885
 Alpha  occ. eigenvalues --   -1.22399  -1.16214  -1.12128  -1.10838  -1.10572
 Alpha  occ. eigenvalues --   -1.07539  -1.07080  -1.06072  -1.04734  -1.01246
 Alpha  occ. eigenvalues --   -0.98903  -0.95547  -0.94904  -0.91843  -0.89045
 Alpha  occ. eigenvalues --   -0.89037  -0.87929  -0.84493  -0.84222  -0.83896
 Alpha  occ. eigenvalues --   -0.82998  -0.81981  -0.81383  -0.80343  -0.79384
 Alpha  occ. eigenvalues --   -0.78572  -0.78093  -0.77263  -0.76292  -0.75420
 Alpha  occ. eigenvalues --   -0.74955  -0.74860  -0.74053  -0.73251  -0.72965
 Alpha  occ. eigenvalues --   -0.72864  -0.72279  -0.71821  -0.70858  -0.70036
 Alpha  occ. eigenvalues --   -0.69543  -0.68665  -0.68011  -0.64973  -0.63430
 Alpha  occ. eigenvalues --   -0.60854  -0.60069  -0.59624  -0.54568
 Alpha virt. eigenvalues --   -0.24769  -0.19061  -0.18406  -0.17728  -0.13166
 Alpha virt. eigenvalues --   -0.11955  -0.11315  -0.07837  -0.07831  -0.06333
 Alpha virt. eigenvalues --   -0.06060  -0.05987  -0.05069  -0.04382  -0.04131

  Beta  occ. eigenvalues --  -14.47216 -14.47214 -10.41250 -10.41214 -10.37040
  Beta  occ. eigenvalues --  -10.36499 -10.36241 -10.35726 -10.33515 -10.33512
  Beta  occ. eigenvalues --  -10.33406 -10.33406 -10.33385 -10.32942 -10.32939
  Beta  occ. eigenvalues --  -10.32743 -10.32743 -10.32433 -10.32432 -10.31732
  Beta  occ. eigenvalues --  -10.31730  -1.34917  -1.31687  -1.26671  -1.24391
  Beta  occ. eigenvalues --   -1.21854  -1.15622  -1.12002  -1.10444  -1.09695
  Beta  occ. eigenvalues --   -1.07480  -1.07053  -1.06048  -1.04689  -1.01000
  Beta  occ. eigenvalues --   -0.98699  -0.95158  -0.94549  -0.91710  -0.88954
  Beta  occ. eigenvalues --   -0.88943  -0.87800  -0.84278  -0.84101  -0.83722
  Beta  occ. eigenvalues --   -0.82853  -0.81876  -0.81110  -0.79861  -0.79178
  Beta  occ. eigenvalues --   -0.78385  -0.78024  -0.76738  -0.76104  -0.75280
  Beta  occ. eigenvalues --   -0.74820  -0.73981  -0.73898  -0.72958  -0.72809
  Beta  occ. eigenvalues --   -0.72262  -0.71937  -0.70897  -0.70536  -0.69924
  Beta  occ. eigenvalues --   -0.69368  -0.68579  -0.67719  -0.62880  -0.61658
  Beta  occ. eigenvalues --   -0.60708  -0.59475  -0.54527
  Beta virt. eigenvalues --   -0.37438  -0.23545  -0.18270  -0.16298  -0.16072
  Beta virt. eigenvalues --   -0.12597  -0.11284  -0.10831  -0.07819  -0.07781
  Beta virt. eigenvalues --   -0.06269  -0.05994  -0.05940  -0.05011  -0.04253

 Mulliken charges and spin densities:
               1          2
     1  C   -0.088783  -0.101150
     2  C   -0.039008   0.394908
     3  C   -0.097671   0.119704
     4  C   -0.088779  -0.101145
     5  C    0.025935   0.251792
     6  C   -0.097678   0.119696
     7  H    0.210444  -0.017561
     8  H    0.207388  -0.007163
     9  H    0.198629   0.003418
    10  H    0.207386  -0.007164
    11  C    0.017064  -0.044470
    12  C   -0.127044   0.170598
    13  C   -0.127063   0.170598
    14  C   -0.105298  -0.138298
    15  C   -0.105324  -0.138292
    16  C    0.203385   0.251161
    17  H    0.207698  -0.008124
    18  H    0.207689  -0.008125
    19  H    0.193312   0.004917
    20  H    0.193269   0.004917
    21  H    0.198629   0.003418
    22  C   -0.477774  -0.090316
    23  C    0.073370   0.021969
    24  C    0.073407   0.021979
    25  N    0.010312   0.057328
    26  N    0.010242   0.057327
    27  C   -0.235807  -0.003895
    28  H    0.192526   0.002885
    29  H    0.131733   0.000418
    30  H    0.187766   0.002744
    31  C   -0.243488  -0.003274
    32  H    0.184782   0.002359
    33  H    0.197503   0.002704
    34  H    0.143219   0.000098
    35  C   -0.235898  -0.003892
    36  H    0.192584   0.002879
    37  H    0.131633   0.000418
    38  H    0.187835   0.002750
    39  C   -0.244246  -0.003281
    40  H    0.184800   0.002338
    41  H    0.197682   0.002719
    42  H    0.143639   0.000108
 Sum of Mulliken charges =   2.00000   1.00000

 Dipole moment (field-independent basis, Debye):
    X=              0.5547    Y=              0.0001    Z=              0.0021  Tot=              0.5547
 Quadrupole moment (field-independent basis, Debye-Ang):
   XX=             86.8892   YY=            -67.4215   ZZ=           -120.2502
   XY=              0.0005   XZ=              0.0055   YZ=             -0.2742

 Normal termination of Gaussian 16 at Thu Jan 21 01:14:55 2021.
