 Gaussian 16, Revision A.03,
 Gaussian 16:  EM64L-G16RevA.03 25-Dec-2016

 ----------------------------------------------------------------------
 #P LC-wHPBE/TZVP iop(3/107=0211700000, 3/108=0211700000) scf=(conver=6
 ,fermi,ndamp=35,noincfock,novaracc,vshift=500,xqc)
 ----------------------------------------------------------------------

 ----------
 H21 C19 N2
 ----------
 Symbolic Z-matrix:
 Charge =  1 Multiplicity = 1

                         Standard orientation:
 ---------------------------------------------------------------------
 Center     Atomic      Atomic             Coordinates (Angstroms)
 Number     Number       Type             X           Y           Z
 ---------------------------------------------------------------------
      1          6           0       -5.924302   -1.175178   -0.282560
      2          6           0       -6.625626    0.000025    0.000251
      3          6           0       -4.530324   -1.177472   -0.278212
      4          6           0       -5.924206    1.175202    0.282951
      5          6           0       -3.810936   -0.000036    0.000021
      6          6           0       -4.530233    1.177435    0.278371
      7          1           0       -7.716547    0.000056    0.000331
      8          1           0       -3.994064   -2.094974   -0.527939
      9          1           0       -6.466302    2.093210    0.514746
     10          1           0       -3.993880    2.094904    0.528010
     11          6           0       -2.333716   -0.000062   -0.000109
     12          6           0       -1.604784    1.119278   -0.452707
     13          6           0       -1.604752   -1.119433    0.452341
     14          6           0       -0.216850    1.125770   -0.449243
     15          6           0       -0.216813   -1.125977    0.448670
     16          6           0        0.504919   -0.000106   -0.000309
     17          1           0       -2.141671    1.985727   -0.840835
     18          1           0       -2.141597   -1.985891    0.840507
     19          1           0        0.315693    1.995203   -0.838189
     20          1           0        0.315745   -1.995465    0.837475
     21          1           0       -6.466484   -2.093156   -0.514265
     22          6           0        1.942874   -0.000086   -0.000402
     23          6           0        3.143323   -0.702637    0.003392
     24          6           0        3.143127    0.702801   -0.003915
     25          7           0        3.787080   -1.855019   -0.001668
     26          7           0        3.786774    1.855252    0.001097
     27          6           0        3.068411   -3.122520   -0.167733
     28          1           0        3.187886   -3.748580    0.728596
     29          1           0        2.005788   -2.927607   -0.341041
     30          1           0        3.471162   -3.663551   -1.036238
     31          6           0        5.245121   -1.944160    0.100275
     32          1           0        5.509149   -2.713998    0.838669
     33          1           0        5.688951   -2.217262   -0.869111
     34          1           0        5.659251   -0.989594    0.439085
     35          6           0        3.068047    3.122616    0.168130
     36          1           0        3.188116    3.749602   -0.727455
     37          1           0        2.005304    2.927538    0.340531
     38          1           0        3.470192    3.662707    1.037509
     39          6           0        5.244950    1.944232   -0.099391
     40          1           0        5.509538    2.718440   -0.832954
     41          1           0        5.688631    2.211256    0.871774
     42          1           0        5.658779    0.991638   -0.444142
 ---------------------------------------------------------------------

 SCF Done:  E(RLC-wHPBE) =  -845.379772847     A.U. after   16 cycles

 The electronic state is 1-A.
 Alpha  occ. eigenvalues --  -14.30431 -14.30429 -10.23215 -10.23182 -10.19500
 Alpha  occ. eigenvalues --  -10.17435 -10.17434 -10.17029 -10.17029 -10.15166
 Alpha  occ. eigenvalues --  -10.13389 -10.13305 -10.13304 -10.11962 -10.11960
 Alpha  occ. eigenvalues --  -10.10698 -10.09297 -10.09295 -10.08730 -10.08718
 Alpha  occ. eigenvalues --  -10.08666  -1.17689  -1.15179  -1.09608  -1.02799
 Alpha  occ. eigenvalues --   -0.98922  -0.94355  -0.92306  -0.92112  -0.91599
 Alpha  occ. eigenvalues --   -0.90657  -0.89628  -0.87900  -0.87837  -0.81065
 Alpha  occ. eigenvalues --   -0.78792  -0.74942  -0.74921  -0.73824  -0.73629
 Alpha  occ. eigenvalues --   -0.73166  -0.69739  -0.69377  -0.68580  -0.67399
 Alpha  occ. eigenvalues --   -0.67373  -0.64663  -0.63621  -0.62101  -0.61926
 Alpha  occ. eigenvalues --   -0.61669  -0.60736  -0.60271  -0.60101  -0.59900
 Alpha  occ. eigenvalues --   -0.59314  -0.59301  -0.58834  -0.58237  -0.57892
 Alpha  occ. eigenvalues --   -0.56381  -0.56330  -0.55326  -0.53429  -0.52799
 Alpha  occ. eigenvalues --   -0.51743  -0.50092  -0.48969  -0.48396  -0.47025
 Alpha  occ. eigenvalues --   -0.44344  -0.42321  -0.40701  -0.38556
 Alpha virt. eigenvalues --   -0.12584  -0.07112  -0.04955  -0.04754  -0.03881
 Alpha virt. eigenvalues --   -0.03478  -0.01002  -0.00491   0.00205   0.01137
 Alpha virt. eigenvalues --    0.01379   0.02258   0.03361   0.03850   0.04116

 Mulliken charges:
               1
     1  C   -0.093234
     2  C   -0.118362
     3  C   -0.121375
     4  C   -0.093232
     5  C   -0.001655
     6  C   -0.121379
     7  H    0.132022
     8  H    0.139423
     9  H    0.126002
    10  H    0.139423
    11  C    0.013933
    12  C   -0.157816
    13  C   -0.157822
    14  C   -0.099807
    15  C   -0.099839
    16  C    0.170978
    17  H    0.158383
    18  H    0.158376
    19  H    0.139245
    20  H    0.139204
    21  H    0.126003
    22  C   -0.462263
    23  C    0.050167
    24  C    0.050215
    25  N    0.010395
    26  N    0.010346
    27  C   -0.238684
    28  H    0.169150
    29  H    0.149607
    30  H    0.164434
    31  C   -0.242268
    32  H    0.165822
    33  H    0.174445
    34  H    0.138926
    35  C   -0.238801
    36  H    0.169212
    37  H    0.149524
    38  H    0.164506
    39  C   -0.242950
    40  H    0.165874
    41  H    0.174594
    42  H    0.139280
 Sum of Mulliken charges =   1.00000

 Dipole moment (field-independent basis, Debye):
    X=             11.6778    Y=              0.0004    Z=              0.0017  Tot=             11.6778
 Quadrupole moment (field-independent basis, Debye-Ang):
   XX=            -23.6634   YY=            -84.5014   ZZ=           -126.0631
   XY=              0.0018   XZ=              0.0060   YZ=             -0.3182

 Normal termination of Gaussian 16 at Thu Jan 21 05:01:43 2021.
