 Gaussian 16, Revision A.03,
 Gaussian 16:  EM64L-G16RevA.03 25-Dec-2016

 ------------------------------------------------------------
 #P LC-wHPBE/TZVP iop(3/107=0281800000, 3/108=0281800000) opt
 ------------------------------------------------------------

 ----------
 H28 C36 N2
 ----------
 Symbolic Z-matrix:
 Charge =  0 Multiplicity = 1

 SCF Done:  E(RLC-wHPBE) =  -1497.23622749     A.U. after   17 cycles
 SCF Done:  E(RLC-wHPBE) =  -1497.30912604     A.U. after   15 cycles
 SCF Done:  E(RLC-wHPBE) =  -1497.35956599     A.U. after   16 cycles
 SCF Done:  E(RLC-wHPBE) =  -1497.37673434     A.U. after   15 cycles
 SCF Done:  E(RLC-wHPBE) =  -1497.38359695     A.U. after   15 cycles
 SCF Done:  E(RLC-wHPBE) =  -1497.38654602     A.U. after   17 cycles
 SCF Done:  E(RLC-wHPBE) =  -1497.38860419     A.U. after   16 cycles
 SCF Done:  E(RLC-wHPBE) =  -1497.39102795     A.U. after   15 cycles
 SCF Done:  E(RLC-wHPBE) =  -1497.39278951     A.U. after   16 cycles
 SCF Done:  E(RLC-wHPBE) =  -1497.39297779     A.U. after   15 cycles
 SCF Done:  E(RLC-wHPBE) =  -1497.39338023     A.U. after   14 cycles
 SCF Done:  E(RLC-wHPBE) =  -1497.39347388     A.U. after   14 cycles
 SCF Done:  E(RLC-wHPBE) =  -1497.39351668     A.U. after   12 cycles
 SCF Done:  E(RLC-wHPBE) =  -1497.39352035     A.U. after   12 cycles
 SCF Done:  E(RLC-wHPBE) =  -1497.39352229     A.U. after   12 cycles
 SCF Done:  E(RLC-wHPBE) =  -1497.39352290     A.U. after   10 cycles
 SCF Done:  E(RLC-wHPBE) =  -1497.39352301     A.U. after    8 cycles
 SCF Done:  E(RLC-wHPBE) =  -1497.39352304     A.U. after    7 cycles
 SCF Done:  E(RLC-wHPBE) =  -1497.39352306     A.U. after    7 cycles
 Optimization completed.
    -- Stationary point found.

                         Standard orientation:
 ---------------------------------------------------------------------
 Center     Atomic      Atomic             Coordinates (Angstroms)
 Number     Number       Type             X           Y           Z
 ---------------------------------------------------------------------
      1          6           0        2.849999   -1.125861    0.415638
      2          6           0        3.563139   -0.000026   -0.000017
      3          6           0        1.464492   -1.123667    0.405534
      4          6           0        2.850033    1.125752   -0.415809
      5          6           0        0.741288   -0.000047   -0.000195
      6          6           0        1.464504    1.123547   -0.405879
      7          1           0        0.931596   -2.005844    0.756198
      8          1           0        3.391048    2.006254   -0.754990
      9          1           0        0.931669    2.005728   -0.756629
     10          6           0       -0.741437   -0.000073   -0.000217
     11          6           0       -1.464635    1.123165    0.406556
     12          6           0       -1.464638   -1.123302   -0.406976
     13          6           0       -2.850149    1.125343    0.416610
     14          6           0       -2.850163   -1.125491   -0.416935
     15          6           0       -3.563257   -0.000095   -0.000116
     16          1           0       -0.931751    2.005025    0.758038
     17          1           0       -0.931783   -2.005140   -0.758553
     18          1           0       -3.391193    2.005527    0.756576
     19          1           0       -3.391211   -2.005669   -0.756913
     20          1           0        3.391005   -2.006357    0.754845
     21          7           0       -4.978430   -0.000102   -0.000065
     22          6           0       -5.687099   -1.154578    0.414287
     23          6           0       -6.831881   -1.566674   -0.271150
     24          6           0       -5.251323   -1.896933    1.513908
     25          6           0       -7.528311   -2.692826    0.143324
     26          6           0       -5.943392   -3.032223    1.910440
     27          6           0       -7.087522   -3.435368    1.232277
     28          1           0       -7.173684   -0.995181   -1.131117
     29          1           0       -4.363437   -1.577947    2.055099
     30          1           0       -8.419174   -2.999763   -0.401550
     31          1           0       -5.589860   -3.599797    2.769285
     32          1           0       -7.631852   -4.321852    1.550225
     33          6           0       -5.687025    1.154532   -0.414292
     34          6           0       -6.831191    1.567225    0.271802
     35          6           0       -5.251707    1.896381   -1.514415
     36          6           0       -7.527485    2.693516   -0.142525
     37          6           0       -5.943620    3.031828   -1.910808
     38          6           0       -7.087137    3.435581   -1.231989
     39          1           0       -7.172616    0.996083    1.132151
     40          1           0       -4.364291    1.576910   -2.056093
     41          1           0       -8.417875    3.000945    0.402845
     42          1           0       -5.590451    3.599029   -2.770050
     43          1           0       -7.631350    4.322181   -1.549815
     44          7           0        4.978266    0.000020    0.000103
     45          6           0        5.686990    1.154558    0.414335
     46          6           0        6.831289    1.566980   -0.271699
     47          6           0        5.251761    1.896543    1.514410
     48          6           0        7.527834    2.693112    0.142653
     49          6           0        5.943923    3.031822    1.910819
     50          6           0        7.087590    3.435293    1.232069
     51          1           0        7.172649    0.995729   -1.132000
     52          1           0        4.364233    1.577285    2.056034
     53          1           0        8.418333    3.000297   -0.402674
     54          1           0        5.590850    3.599137    2.770027
     55          1           0        7.631979    4.321768    1.549941
     56          6           0        5.687017   -1.154516   -0.414141
     57          6           0        6.831068   -1.567191    0.272109
     58          6           0        5.251977   -1.896199   -1.514492
     59          6           0        7.527566   -2.693348   -0.142281
     60          6           0        5.944079   -3.031486   -1.910953
     61          6           0        7.087509   -3.435246   -1.231958
     62          1           0        7.172277   -0.996155    1.132614
     63          1           0        4.364636   -1.576682   -2.056275
     64          1           0        8.417864   -3.000787    0.403227
     65          1           0        5.591165   -3.598572   -2.770374
     66          1           0        7.631874   -4.321730   -1.549857
 ---------------------------------------------------------------------

 The electronic state is 1-A.
 Alpha  occ. eigenvalues --  -14.17466 -14.17465 -10.08867 -10.08866 -10.08865
 Alpha  occ. eigenvalues --  -10.08864 -10.08796 -10.08795 -10.05401 -10.05388
 Alpha  occ. eigenvalues --  -10.04778 -10.04778 -10.04777 -10.04776 -10.04776
 Alpha  occ. eigenvalues --  -10.04775 -10.04775 -10.04773 -10.04732 -10.04731
 Alpha  occ. eigenvalues --  -10.04729 -10.04727 -10.04488 -10.04487 -10.04487
 Alpha  occ. eigenvalues --  -10.04486 -10.04457 -10.04457 -10.04456 -10.04455
 Alpha  occ. eigenvalues --  -10.04451 -10.04451 -10.04450 -10.04448 -10.04283
 Alpha  occ. eigenvalues --  -10.04283 -10.04282 -10.04280  -1.05478  -1.05472
 Alpha  occ. eigenvalues --   -0.96224  -0.95130  -0.95128  -0.94827  -0.93577
 Alpha  occ. eigenvalues --   -0.92689  -0.87311  -0.85403  -0.85307  -0.84658
 Alpha  occ. eigenvalues --   -0.84121  -0.84005  -0.83768  -0.83741  -0.83461
 Alpha  occ. eigenvalues --   -0.83132  -0.80936  -0.78802  -0.73484  -0.72799
 Alpha  occ. eigenvalues --   -0.72113  -0.71173  -0.70691  -0.69743  -0.69699
 Alpha  occ. eigenvalues --   -0.69571  -0.68634  -0.68506  -0.66744  -0.66102
 Alpha  occ. eigenvalues --   -0.63644  -0.63419  -0.63179  -0.62877  -0.60531
 Alpha  occ. eigenvalues --   -0.58890  -0.57823  -0.57787  -0.57135  -0.56651
 Alpha  occ. eigenvalues --   -0.55958  -0.54806  -0.54545  -0.54259  -0.53801
 Alpha  occ. eigenvalues --   -0.53335  -0.53277  -0.52856  -0.52332  -0.52270
 Alpha  occ. eigenvalues --   -0.52231  -0.51569  -0.51352  -0.51274  -0.51108
 Alpha  occ. eigenvalues --   -0.51100  -0.50790  -0.49030  -0.48217  -0.47976
 Alpha  occ. eigenvalues --   -0.47649  -0.47648  -0.47556  -0.47219  -0.45421
 Alpha  occ. eigenvalues --   -0.45056  -0.44559  -0.44327  -0.44065  -0.44042
 Alpha  occ. eigenvalues --   -0.43661  -0.43043  -0.42805  -0.42594  -0.42425
 Alpha  occ. eigenvalues --   -0.40648  -0.40005  -0.36760  -0.35395  -0.35364
 Alpha  occ. eigenvalues --   -0.35344  -0.35328  -0.34429  -0.34174  -0.34106
 Alpha  occ. eigenvalues --   -0.34089  -0.33091  -0.27368  -0.25792
 Alpha virt. eigenvalues --    0.02486   0.04090   0.04146   0.04547   0.04549
 Alpha virt. eigenvalues --    0.06144   0.06549   0.06766   0.06793   0.06802
 Alpha virt. eigenvalues --    0.08978   0.10875   0.12062   0.12296   0.13074

 Mulliken charges:
               1
     1  C   -0.126230
     2  C   -0.049155
     3  C   -0.162873
     4  C   -0.126255
     5  C    0.026045
     6  C   -0.162860
     7  H    0.139166
     8  H    0.160693
     9  H    0.139163
    10  C    0.026138
    11  C   -0.162892
    12  C   -0.162885
    13  C   -0.125904
    14  C   -0.125994
    15  C   -0.049755
    16  H    0.139168
    17  H    0.139168
    18  H    0.160616
    19  H    0.160638
    20  H    0.160687
    21  N   -0.040183
    22  C   -0.052268
    23  C   -0.126038
    24  C   -0.119872
    25  C   -0.120528
    26  C   -0.120253
    27  C   -0.118753
    28  H    0.164480
    29  H    0.163010
    30  H    0.117421
    31  H    0.117387
    32  H    0.116368
    33  C   -0.052677
    34  C   -0.125853
    35  C   -0.119648
    36  C   -0.120550
    37  C   -0.120262
    38  C   -0.118703
    39  H    0.164458
    40  H    0.162949
    41  H    0.117428
    42  H    0.117393
    43  H    0.116379
    44  N   -0.040192
    45  C   -0.052652
    46  C   -0.125770
    47  C   -0.119760
    48  C   -0.120532
    49  C   -0.120263
    50  C   -0.118710
    51  H    0.164416
    52  H    0.162993
    53  H    0.117429
    54  H    0.117394
    55  H    0.116380
    56  C   -0.052850
    57  C   -0.125689
    58  C   -0.119643
    59  C   -0.120548
    60  C   -0.120278
    61  C   -0.118686
    62  H    0.164400
    63  H    0.162983
    64  H    0.117432
    65  H    0.117398
    66  H    0.116383
 Sum of Mulliken charges =  -0.00000

 Dipole moment (field-independent basis, Debye):
    X=              0.0036    Y=              0.0007    Z=             -0.0005  Tot=              0.0037
 Quadrupole moment (field-independent basis, Debye-Ang):
   XX=           -203.5039   YY=           -205.6889   ZZ=           -217.2337
   XY=             -0.0142   XZ=              0.0006   YZ=              0.0051

 Normal termination of Gaussian 16 at Sun Jan 17 21:29:45 2021.
