 Gaussian 16, Revision A.03,
 Gaussian 16:  EM64L-G16RevA.03 25-Dec-2016

 ------------------------------------------------------------
 #P LC-wHPBE/TZVP iop(3/107=0476200000, 3/108=0476200000) opt
 ------------------------------------------------------------

 ----------------
 H19 C24 S2 N1 O2
 ----------------
 Symbolic Z-matrix:
 Charge =  0 Multiplicity = 1

 SCF Done:  E(RLC-wHPBE) =  -1925.94676653     A.U. after   23 cycles
 SCF Done:  E(RLC-wHPBE) =  -1926.16944933     A.U. after   24 cycles
 SCF Done:  E(RLC-wHPBE) =  -1926.40913341     A.U. after   21 cycles
 SCF Done:  E(RLC-wHPBE) =  -1926.46498265     A.U. after   26 cycles
 SCF Done:  E(RLC-wHPBE) =  -1926.48727428     A.U. after   26 cycles
 SCF Done:  E(RLC-wHPBE) =  -1926.50365062     A.U. after   27 cycles
 SCF Done:  E(RLC-wHPBE) =  -1926.53091699     A.U. after   30 cycles
 SCF Done:  E(RLC-wHPBE) =  -1926.54814909     A.U. after   28 cycles
 SCF Done:  E(RLC-wHPBE) =  -1926.56920844     A.U. after   37 cycles
 SCF Done:  E(RLC-wHPBE) =  -1926.57684006     A.U. after   34 cycles
 SCF Done:  E(RLC-wHPBE) =  -1926.71318968     A.U. after   11 cycles
 SCF Done:  E(RLC-wHPBE) =  -1926.71319092     A.U. after   10 cycles
 SCF Done:  E(RLC-wHPBE) =  -1926.71319203     A.U. after   11 cycles
 SCF Done:  E(RLC-wHPBE) =  -1926.71319303     A.U. after   11 cycles
 SCF Done:  E(RLC-wHPBE) =  -1926.71319353     A.U. after   11 cycles
 SCF Done:  E(RLC-wHPBE) =  -1926.71319389     A.U. after   10 cycles
 SCF Done:  E(RLC-wHPBE) =  -1926.71319423     A.U. after   10 cycles
 SCF Done:  E(RLC-wHPBE) =  -1926.71319453     A.U. after   10 cycles
 SCF Done:  E(RLC-wHPBE) =  -1926.71319481     A.U. after   10 cycles
 SCF Done:  E(RLC-wHPBE) =  -1926.71319495     A.U. after    9 cycles
 Optimization completed.
    -- Stationary point found.

                         Standard orientation:
 ---------------------------------------------------------------------
 Center     Atomic      Atomic             Coordinates (Angstroms)
 Number     Number       Type             X           Y           Z
 ---------------------------------------------------------------------
      1          6           0       -6.544630   -1.193879    0.127010
      2          6           0       -5.283469   -0.647909    0.131523
      3         16           0       -3.665919   -1.107322    1.042984
      4          6           0       -4.996815    0.486583   -0.537830
      5          6           0       -1.475687    0.036886    0.221747
      6          6           0       -1.772288   -1.094442    0.892846
      7          6           0       -7.517398   -0.549399   -0.618903
      8          6           0       -5.951198    1.159916   -1.262339
      9          1           0       -2.843406    1.345523   -1.332578
     10          6           0       -0.186077    0.430997   -0.028463
     11          6           0       -0.773630   -1.912541    1.366813
     12          6           0        0.536910   -1.552052    1.124661
     13          6           0        0.845585   -0.387156    0.425435
     14          1           0        0.045427    1.339810   -0.567415
     15          1           0       -0.986976   -2.816418    1.923251
     16          1           0        1.342687   -2.175375    1.484620
     17          6           0       -7.223748    0.615229   -1.306247
     18          1           0       -6.782458   -2.097666    0.673346
     19          1           0       -3.815781   -2.439410    0.928305
     20          1           0       -8.517553   -0.958288   -0.663525
     21          1           0       -5.730059    2.077989   -1.791552
     22          1           0       -7.997253    1.105431   -1.881471
     23         16           0       -3.166075    0.851646   -0.124057
     24          7           0        2.182887   -0.044483    0.184905
     25          6           0        3.146505   -1.044921   -0.067172
     26          6           0        4.392012   -0.989098    0.539344
     27          6           0        2.878694   -2.090316   -0.930362
     28          6           0        5.345494   -1.946131    0.285899
     29          6           0        3.822608   -3.066997   -1.170354
     30          6           0        5.062274   -2.995295   -0.567641
     31          1           0        4.612943   -0.174890    1.215121
     32          1           0        1.913696   -2.145516   -1.414069
     33          1           0        6.317156   -1.901598    0.755555
     34          1           0        3.591387   -3.881585   -1.845380
     35          6           0        2.575405    1.310294    0.123192
     36          6           0        3.391681    1.763268   -0.894977
     37          6           0        2.164040    2.211964    1.093710
     38          6           0        3.796835    3.081396   -0.942072
     39          6           0        2.544098    3.531176    1.038879
     40          6           0        3.368807    3.972023    0.020733
     41          1           0        3.723839    1.071840   -1.656403
     42          1           0        1.529535    1.868488    1.898614
     43          1           0        4.442764    3.415230   -1.744528
     44          1           0        2.220724    4.234697    1.791974
     45          8           0        3.726245    5.281320    0.019257
     46          1           0        4.294203    5.466041   -0.728132
     47          8           0        6.032969   -3.920806   -0.776143
     48          1           0        5.721078   -4.593785   -1.380389
 ---------------------------------------------------------------------

 The electronic state is 1-A.
 Alpha  occ. eigenvalues --  -88.40565 -88.40469 -19.03606 -19.03490 -14.27050
 Alpha  occ. eigenvalues --  -10.21662 -10.21549 -10.19684 -10.18944 -10.18873
 Alpha  occ. eigenvalues --  -10.15968 -10.15897 -10.15838 -10.15813 -10.15811
 Alpha  occ. eigenvalues --  -10.15778 -10.15751 -10.15717 -10.15702 -10.15634
 Alpha  occ. eigenvalues --  -10.15594 -10.15502 -10.15310 -10.15246 -10.15244
 Alpha  occ. eigenvalues --  -10.15186 -10.15086 -10.14989 -10.14771  -7.99335
 Alpha  occ. eigenvalues --   -7.99249  -6.00594  -6.00517  -6.00377  -6.00285
 Alpha  occ. eigenvalues --   -5.99563  -5.99475  -1.24020  -1.23906  -1.15689
 Alpha  occ. eigenvalues --   -1.07647  -1.05593  -1.05476  -1.03549  -1.00291
 Alpha  occ. eigenvalues --   -0.95021  -0.94309  -0.94012  -0.93351  -0.93182
 Alpha  occ. eigenvalues --   -0.92559  -0.90127  -0.88881  -0.86378  -0.80741
 Alpha  occ. eigenvalues --   -0.80151  -0.78658  -0.78065  -0.76951  -0.76374
 Alpha  occ. eigenvalues --   -0.74568  -0.72564  -0.70939  -0.70826  -0.69303
 Alpha  occ. eigenvalues --   -0.68458  -0.66982  -0.65201  -0.63530  -0.62639
 Alpha  occ. eigenvalues --   -0.61015  -0.60617  -0.59291  -0.59165  -0.58879
 Alpha  occ. eigenvalues --   -0.58572  -0.57816  -0.57412  -0.57238  -0.56980
 Alpha  occ. eigenvalues --   -0.56863  -0.56313  -0.55831  -0.54591  -0.54260
 Alpha  occ. eigenvalues --   -0.53688  -0.52996  -0.52513  -0.51577  -0.50127
 Alpha  occ. eigenvalues --   -0.49851  -0.49422  -0.49160  -0.48060  -0.47773
 Alpha  occ. eigenvalues --   -0.47502  -0.47172  -0.45665  -0.42664  -0.39674
 Alpha  occ. eigenvalues --   -0.38409  -0.37796  -0.37463  -0.36873  -0.35245
 Alpha  occ. eigenvalues --   -0.34936  -0.34004  -0.29111  -0.27881
 Alpha virt. eigenvalues --    0.04998   0.06189   0.06512   0.07443   0.07618
 Alpha virt. eigenvalues --    0.07896   0.07966   0.09931   0.11580   0.11926
 Alpha virt. eigenvalues --    0.12053   0.12698   0.13436   0.14188   0.14701

 Mulliken charges:
               1
     1  C   -0.076868
     2  C   -0.216731
     3  S    0.192692
     4  C   -0.211101
     5  C   -0.264753
     6  C   -0.237519
     7  C   -0.136597
     8  C   -0.079379
     9  H    0.091891
    10  C   -0.039487
    11  C   -0.054979
    12  C   -0.192928
    13  C    0.002511
    14  H    0.200028
    15  H    0.138039
    16  H    0.197231
    17  C   -0.135394
    18  H    0.139745
    19  H    0.088780
    20  H    0.142774
    21  H    0.140155
    22  H    0.142792
    23  S    0.190483
    24  N   -0.079882
    25  C   -0.158320
    26  C   -0.090602
    27  C   -0.114799
    28  C   -0.218681
    29  C   -0.193228
    30  C    0.117315
    31  H    0.181337
    32  H    0.190761
    33  H    0.160947
    34  H    0.145980
    35  C   -0.153701
    36  C   -0.108698
    37  C   -0.097557
    38  C   -0.188862
    39  C   -0.217037
    40  C    0.114020
    41  H    0.182699
    42  H    0.191800
    43  H    0.147113
    44  H    0.161442
    45  O   -0.272330
    46  H    0.275746
    47  O   -0.272607
    48  H    0.275760
 Sum of Mulliken charges =  -0.00000

 Dipole moment (field-independent basis, Debye):
    X=              0.5456    Y=             -1.5780    Z=             -3.1857  Tot=              3.5968
 Quadrupole moment (field-independent basis, Debye-Ang):
   XX=           -174.2167   YY=           -165.5551   ZZ=           -176.0502
   XY=              7.6877   XZ=             -5.2335   YZ=             -5.9098

 Normal termination of Gaussian 16 at Mon Jan 18 04:29:53 2021.
