 Gaussian 16, Revision A.03,
 Gaussian 16:  EM64L-G16RevA.03 25-Dec-2016

 ----------------------------------------------------------------------
 #P LC-wHPBE/TZVP iop(3/107=0220000000, 3/108=0220000000) scf=(conver=6
 ,fermi,ndamp=35,noincfock,novaracc,vshift=500,xqc)
 ----------------------------------------------------------------------

 ----------
 H10 C12 S2
 ----------
 Symbolic Z-matrix:
 Charge =  0 Multiplicity = 1

                         Standard orientation:
 ---------------------------------------------------------------------
 Center     Atomic      Atomic             Coordinates (Angstroms)
 Number     Number       Type             X           Y           Z
 ---------------------------------------------------------------------
      1          6           0        2.574063    1.434391   -0.049117
      2          6           0        1.368901    0.745264   -0.216328
      3         16           0       -0.093606    1.678504   -0.585022
      4          6           0        1.397687   -0.626896   -0.046009
      5          6           0       -1.500395   -0.811934    0.077279
      6          6           0       -1.478004   -0.220423    1.307027
      7          6           0        3.746915    0.783096    0.229547
      8          6           0        2.584351   -1.293751    0.256604
      9          1           0        0.039943   -1.860892   -1.547006
     10          6           0       -2.473105   -0.786527   -0.925649
     11          6           0       -2.645316    0.559969    1.492438
     12          6           0       -3.655495    0.649979    0.563531
     13          6           0       -3.583956   -0.035098   -0.656753
     14          1           0       -2.357645   -1.302286   -1.874829
     15          1           0       -2.763398    1.119309    2.419207
     16          1           0       -4.527775    1.262476    0.773175
     17          1           0       -4.391412    0.038194   -1.378729
     18          6           0        3.759914   -0.597536    0.384558
     19          1           0        2.557315    2.514169   -0.138510
     20          1           0        0.525974    2.528359   -1.431800
     21          1           0        4.665467    1.345208    0.349638
     22          1           0        2.558102   -2.368477    0.406674
     23          1           0        4.681894   -1.115025    0.619767
     24         16           0       -0.004008   -1.738768   -0.208750
 ---------------------------------------------------------------------

 SCF Done:  E(RLC-wHPBE) =  -1258.97148445     A.U. after   19 cycles

 The electronic state is 1-A.
 Alpha  occ. eigenvalues --  -88.31198 -88.22125 -10.08034 -10.07841 -10.04590
 Alpha  occ. eigenvalues --  -10.03741 -10.03643 -10.03503 -10.02506 -10.00390
 Alpha  occ. eigenvalues --   -9.99207  -9.98565  -9.97479  -9.93770  -7.90237
 Alpha  occ. eigenvalues --   -7.81362  -5.92200  -5.92036  -5.91338  -5.83549
 Alpha  occ. eigenvalues --   -5.83063  -5.82265  -0.96954  -0.92605  -0.88108
 Alpha  occ. eigenvalues --   -0.86884  -0.82791  -0.78786  -0.77711  -0.76089
 Alpha  occ. eigenvalues --   -0.70170  -0.68347  -0.65101  -0.63092  -0.60724
 Alpha  occ. eigenvalues --   -0.57763  -0.56970  -0.55140  -0.53423  -0.51684
 Alpha  occ. eigenvalues --   -0.51271  -0.49334  -0.49255  -0.47095  -0.46145
 Alpha  occ. eigenvalues --   -0.45892  -0.44749  -0.43394  -0.41954  -0.40446
 Alpha  occ. eigenvalues --   -0.37621  -0.37549  -0.36308  -0.32112  -0.29578
 Alpha  occ. eigenvalues --   -0.29501  -0.22654
 Alpha virt. eigenvalues --    0.00351   0.01643   0.03741   0.05065   0.07319
 Alpha virt. eigenvalues --    0.08505   0.09145   0.10182   0.11496   0.12504
 Alpha virt. eigenvalues --    0.13794   0.14317   0.16369   0.16624   0.16953

 Mulliken charges:
               1
     1  C   -0.071193
     2  C    0.017803
     3  S    0.003945
     4  C   -0.204858
     5  C   -0.349904
     6  C   -0.174244
     7  C   -0.092682
     8  C   -0.063871
     9  H    0.111772
    10  C    0.021012
    11  C   -0.177506
    12  C   -0.066664
    13  C   -0.187919
    14  H    0.106225
    15  H    0.092521
    16  H    0.096008
    17  H    0.100619
    18  C   -0.116036
    19  H    0.139515
    20  H    0.085341
    21  H    0.123265
    22  H    0.147946
    23  H    0.121878
    24  S    0.337026
 Sum of Mulliken charges =  -0.00000

 Dipole moment (field-independent basis, Debye):
    X=              4.6178    Y=             -0.9159    Z=             -4.4713  Tot=              6.4927
 Quadrupole moment (field-independent basis, Debye-Ang):
   XX=            -86.1887   YY=            -87.0688   ZZ=           -101.0240
   XY=             -1.1421   XZ=              5.4172   YZ=              2.5359

 Normal termination of Gaussian 16 at Tue Jan 26 00:01:07 2021.
