 Gaussian 16, Revision A.03,
 Gaussian 16:  EM64L-G16RevA.03 25-Dec-2016

 ----------------------------------------------------------------------
 #P LC-wHPBE/TZVP iop(3/107=0236300000, 3/108=0236300000) scf=(conver=6
 ,fermi,ndamp=35,noincfock,novaracc,vshift=500,xqc)
 ----------------------------------------------------------------------

 ----------
 H10 C12 S2
 ----------
 Symbolic Z-matrix:
 Charge =  1 Multiplicity = 2

                         Standard orientation:
 ---------------------------------------------------------------------
 Center     Atomic      Atomic             Coordinates (Angstroms)
 Number     Number       Type             X           Y           Z
 ---------------------------------------------------------------------
      1          6           0        2.574063    1.434391   -0.049117
      2          6           0        1.368901    0.745264   -0.216328
      3         16           0       -0.093606    1.678504   -0.585022
      4          6           0        1.397687   -0.626896   -0.046009
      5          6           0       -1.500395   -0.811934    0.077279
      6          6           0       -1.478004   -0.220423    1.307027
      7          6           0        3.746915    0.783096    0.229547
      8          6           0        2.584351   -1.293751    0.256604
      9          1           0        0.039943   -1.860892   -1.547006
     10          6           0       -2.473105   -0.786527   -0.925649
     11          6           0       -2.645316    0.559969    1.492438
     12          6           0       -3.655495    0.649979    0.563531
     13          6           0       -3.583956   -0.035098   -0.656753
     14          1           0       -2.357645   -1.302286   -1.874829
     15          1           0       -2.763398    1.119309    2.419207
     16          1           0       -4.527775    1.262476    0.773175
     17          1           0       -4.391412    0.038194   -1.378729
     18          6           0        3.759914   -0.597536    0.384558
     19          1           0        2.557315    2.514169   -0.138510
     20          1           0        0.525974    2.528359   -1.431800
     21          1           0        4.665467    1.345208    0.349638
     22          1           0        2.558102   -2.368477    0.406674
     23          1           0        4.681894   -1.115025    0.619767
     24         16           0       -0.004008   -1.738768   -0.208750
 ---------------------------------------------------------------------

 SCF Done:  E(ULC-wHPBE) =  -1258.75425804     A.U. after   33 cycles
 SCF Done:  E(ULC-wHPBE) =  -1258.75678744     a.u. after    9 cycles

 The electronic state is 2-A.
 Alpha  occ. eigenvalues --  -88.48624 -88.36303 -10.23807 -10.22863 -10.22620
 Alpha  occ. eigenvalues --  -10.21836 -10.19202 -10.18135 -10.18134 -10.17498
 Alpha  occ. eigenvalues --  -10.17421 -10.16729 -10.16510 -10.16306  -8.07688
 Alpha  occ. eigenvalues --   -7.95642  -6.09562  -6.09505  -6.08771  -5.97797
 Alpha  occ. eigenvalues --   -5.97299  -5.96520  -1.13575  -1.09362  -1.06006
 Alpha  occ. eigenvalues --   -1.00708  -0.98405  -0.98126  -0.94720  -0.91905
 Alpha  occ. eigenvalues --   -0.84831  -0.83760  -0.83422  -0.80629  -0.76206
 Alpha  occ. eigenvalues --   -0.74711  -0.71464  -0.69934  -0.69262  -0.68166
 Alpha  occ. eigenvalues --   -0.66391  -0.65856  -0.64809  -0.63821  -0.62920
 Alpha  occ. eigenvalues --   -0.61833  -0.59792  -0.59208  -0.57079  -0.56741
 Alpha  occ. eigenvalues --   -0.54987  -0.52382  -0.51189  -0.50188  -0.49548
 Alpha  occ. eigenvalues --   -0.48408  -0.44154
 Alpha virt. eigenvalues --   -0.13235  -0.12885  -0.11308  -0.09891  -0.08786
 Alpha virt. eigenvalues --   -0.06998  -0.04905  -0.03562  -0.00351   0.00879
 Alpha virt. eigenvalues --    0.01803   0.03138   0.03422   0.04783   0.05090

  Beta  occ. eigenvalues --  -88.48610 -88.36302 -10.23810 -10.22624 -10.21833
  Beta  occ. eigenvalues --  -10.21294 -10.19102 -10.18144 -10.18134 -10.17495
  Beta  occ. eigenvalues --  -10.17370 -10.16730 -10.16509 -10.16306  -8.07672
  Beta  occ. eigenvalues --   -7.95641  -6.09540  -6.09486  -6.08753  -5.97796
  Beta  occ. eigenvalues --   -5.97299  -5.96519  -1.13331  -1.09096  -1.05858
  Beta  occ. eigenvalues --   -1.00695  -0.98071  -0.97420  -0.94502  -0.91852
  Beta  occ. eigenvalues --   -0.84392  -0.83415  -0.83321  -0.80260  -0.75715
  Beta  occ. eigenvalues --   -0.74634  -0.71291  -0.69696  -0.68757  -0.67959
  Beta  occ. eigenvalues --   -0.66255  -0.65554  -0.64680  -0.63620  -0.62795
  Beta  occ. eigenvalues --   -0.60732  -0.59622  -0.58890  -0.57008  -0.56401
  Beta  occ. eigenvalues --   -0.54986  -0.51360  -0.49968  -0.49070  -0.48251
  Beta  occ. eigenvalues --   -0.44152
  Beta virt. eigenvalues --   -0.21425  -0.13078  -0.12256  -0.11101  -0.09692
  Beta virt. eigenvalues --   -0.08284  -0.06897  -0.04759  -0.03361  -0.00332
  Beta virt. eigenvalues --    0.01016   0.01830   0.03346   0.03495   0.05134

 Mulliken charges and spin densities:
               1          2
     1  C   -0.061034  -0.002244
     2  C    0.022467   0.003021
     3  S   -0.014810  -0.002119
     4  C   -0.302873   0.000638
     5  C   -0.303948  -0.066873
     6  C    0.104089   0.975171
     7  C   -0.075586   0.001670
     8  C   -0.046101  -0.000102
     9  H    0.168390   0.000276
    10  C    0.074428   0.064171
    11  C   -0.115702  -0.038475
    12  C   -0.059030   0.068103
    13  C   -0.160036  -0.056639
    14  H    0.175585   0.004869
    15  H    0.181247   0.024693
    16  H    0.170402   0.003864
    17  H    0.168022   0.003766
    18  C   -0.119881  -0.000313
    19  H    0.170067   0.000061
    20  H    0.138136   0.000542
    21  H    0.162200  -0.000045
    22  H    0.180273   0.000018
    23  H    0.160488   0.000000
    24  S    0.383208   0.015947
 Sum of Mulliken charges =   1.00000   1.00000

 Dipole moment (field-independent basis, Debye):
    X=             -0.1391    Y=             -1.5861    Z=             -1.8168  Tot=              2.4158
 Quadrupole moment (field-independent basis, Debye-Ang):
   XX=            -49.3606   YY=            -76.2881   ZZ=            -85.8902
   XY=             -1.7424   XZ=              2.4978   YZ=              3.2178

 Normal termination of Gaussian 16 at Mon Jan 25 23:13:45 2021.
