 Gaussian 16, Revision A.03,
 Gaussian 16:  EM64L-G16RevA.03 25-Dec-2016

 ----------------------------------------------------------------------
 #P LC-wHPBE/TZVP iop(3/107=0219100000, 3/108=0219100000) scf=(conver=6
 ,fermi,ndamp=35,noincfock,novaracc,vshift=500,xqc)
 ----------------------------------------------------------------------

 ----------
 H10 C12 S2
 ----------
 Symbolic Z-matrix:
 Charge =  0 Multiplicity = 1

                         Standard orientation:
 ---------------------------------------------------------------------
 Center     Atomic      Atomic             Coordinates (Angstroms)
 Number     Number       Type             X           Y           Z
 ---------------------------------------------------------------------
      1          6           0        2.574063    1.434391   -0.049117
      2          6           0        1.368901    0.745264   -0.216328
      3         16           0       -0.093606    1.678504   -0.585022
      4          6           0        1.397687   -0.626896   -0.046009
      5          6           0       -1.500395   -0.811934    0.077279
      6          6           0       -1.478004   -0.220423    1.307027
      7          6           0        3.746915    0.783096    0.229547
      8          6           0        2.584351   -1.293751    0.256604
      9          1           0        0.039943   -1.860892   -1.547006
     10          6           0       -2.473105   -0.786527   -0.925649
     11          6           0       -2.645316    0.559969    1.492438
     12          6           0       -3.655495    0.649979    0.563531
     13          6           0       -3.583956   -0.035098   -0.656753
     14          1           0       -2.357645   -1.302286   -1.874829
     15          1           0       -2.763398    1.119309    2.419207
     16          1           0       -4.527775    1.262476    0.773175
     17          1           0       -4.391412    0.038194   -1.378729
     18          6           0        3.759914   -0.597536    0.384558
     19          1           0        2.557315    2.514169   -0.138510
     20          1           0        0.525974    2.528359   -1.431800
     21          1           0        4.665467    1.345208    0.349638
     22          1           0        2.558102   -2.368477    0.406674
     23          1           0        4.681894   -1.115025    0.619767
     24         16           0       -0.004008   -1.738768   -0.208750
 ---------------------------------------------------------------------

 SCF Done:  E(RLC-wHPBE) =  -1258.97082637     A.U. after   19 cycles

 The electronic state is 1-A.
 Alpha  occ. eigenvalues --  -88.31144 -88.22077 -10.07981 -10.07788 -10.04538
 Alpha  occ. eigenvalues --  -10.03689 -10.03591 -10.03451 -10.02456 -10.00340
 Alpha  occ. eigenvalues --   -9.99158  -9.98517  -9.97432  -9.93724  -7.90183
 Alpha  occ. eigenvalues --   -7.81312  -5.92147  -5.91983  -5.91285  -5.83500
 Alpha  occ. eigenvalues --   -5.83015  -5.82217  -0.96899  -0.92551  -0.88056
 Alpha  occ. eigenvalues --   -0.86831  -0.82740  -0.78737  -0.77663  -0.76042
 Alpha  occ. eigenvalues --   -0.70124  -0.68302  -0.65058  -0.63050  -0.60682
 Alpha  occ. eigenvalues --   -0.57723  -0.56930  -0.55101  -0.53384  -0.51647
 Alpha  occ. eigenvalues --   -0.51234  -0.49297  -0.49216  -0.47060  -0.46110
 Alpha  occ. eigenvalues --   -0.45857  -0.44714  -0.43361  -0.41921  -0.40414
 Alpha  occ. eigenvalues --   -0.37591  -0.37520  -0.36281  -0.32086  -0.29554
 Alpha  occ. eigenvalues --   -0.29481  -0.22627
 Alpha virt. eigenvalues --    0.00334   0.01625   0.03720   0.05045   0.07298
 Alpha virt. eigenvalues --    0.08484   0.09122   0.10160   0.11477   0.12481
 Alpha virt. eigenvalues --    0.13776   0.14298   0.16349   0.16605   0.16934

 Mulliken charges:
               1
     1  C   -0.071105
     2  C    0.017876
     3  S    0.003860
     4  C   -0.204769
     5  C   -0.349822
     6  C   -0.174046
     7  C   -0.092585
     8  C   -0.063777
     9  H    0.111701
    10  C    0.021104
    11  C   -0.177463
    12  C   -0.066577
    13  C   -0.187775
    14  H    0.106111
    15  H    0.092451
    16  H    0.095897
    17  H    0.100521
    18  C   -0.115903
    19  H    0.139395
    20  H    0.085325
    21  H    0.123147
    22  H    0.147815
    23  H    0.121763
    24  S    0.336855
 Sum of Mulliken charges =  -0.00000

 Dipole moment (field-independent basis, Debye):
    X=              4.6151    Y=             -0.9149    Z=             -4.4694  Tot=              6.4893
 Quadrupole moment (field-independent basis, Debye-Ang):
   XX=            -86.1924   YY=            -87.0747   ZZ=           -101.0253
   XY=             -1.1419   XZ=              5.4157   YZ=              2.5341

 Normal termination of Gaussian 16 at Tue Jan 26 00:30:17 2021.
