 Gaussian 16, Revision A.03,
 Gaussian 16:  EM64L-G16RevA.03 25-Dec-2016

 ----------------------------------------------------------------------
 #P LC-wHPBE/TZVP iop(3/107=0209700000, 3/108=0209700000) scf=(conver=6
 ,fermi,ndamp=35,noincfock,novaracc,vshift=500,xqc)
 ----------------------------------------------------------------------

 ----------
 H10 C12 S2
 ----------
 Symbolic Z-matrix:
 Charge =  0 Multiplicity = 1

                         Standard orientation:
 ---------------------------------------------------------------------
 Center     Atomic      Atomic             Coordinates (Angstroms)
 Number     Number       Type             X           Y           Z
 ---------------------------------------------------------------------
      1          6           0        2.574063    1.434391   -0.049117
      2          6           0        1.368901    0.745264   -0.216328
      3         16           0       -0.093606    1.678504   -0.585022
      4          6           0        1.397687   -0.626896   -0.046009
      5          6           0       -1.500395   -0.811934    0.077279
      6          6           0       -1.478004   -0.220423    1.307027
      7          6           0        3.746915    0.783096    0.229547
      8          6           0        2.584351   -1.293751    0.256604
      9          1           0        0.039943   -1.860892   -1.547006
     10          6           0       -2.473105   -0.786527   -0.925649
     11          6           0       -2.645316    0.559969    1.492438
     12          6           0       -3.655495    0.649979    0.563531
     13          6           0       -3.583956   -0.035098   -0.656753
     14          1           0       -2.357645   -1.302286   -1.874829
     15          1           0       -2.763398    1.119309    2.419207
     16          1           0       -4.527775    1.262476    0.773175
     17          1           0       -4.391412    0.038194   -1.378729
     18          6           0        3.759914   -0.597536    0.384558
     19          1           0        2.557315    2.514169   -0.138510
     20          1           0        0.525974    2.528359   -1.431800
     21          1           0        4.665467    1.345208    0.349638
     22          1           0        2.558102   -2.368477    0.406674
     23          1           0        4.681894   -1.115025    0.619767
     24         16           0       -0.004008   -1.738768   -0.208750
 ---------------------------------------------------------------------

 SCF Done:  E(RLC-wHPBE) =  -1258.96387635     A.U. after   19 cycles

 The electronic state is 1-A.
 Alpha  occ. eigenvalues --  -88.30588 -88.21569 -10.07426 -10.07237 -10.03990
 Alpha  occ. eigenvalues --  -10.03144 -10.03052 -10.02908 -10.01937  -9.99819
 Alpha  occ. eigenvalues --   -9.98652  -9.98007  -9.96937  -9.93245  -7.89616
 Alpha  occ. eigenvalues --   -7.80793  -5.91593  -5.91431  -5.90735  -5.82993
 Alpha  occ. eigenvalues --   -5.82510  -5.81715  -0.96316  -0.91985  -0.87512
 Alpha  occ. eigenvalues --   -0.86282  -0.82204  -0.78220  -0.77157  -0.75541
 Alpha  occ. eigenvalues --   -0.69637  -0.67830  -0.64602  -0.62606  -0.60243
 Alpha  occ. eigenvalues --   -0.57300  -0.56510  -0.54691  -0.52980  -0.51263
 Alpha  occ. eigenvalues --   -0.50843  -0.48911  -0.48803  -0.46684  -0.45741
 Alpha  occ. eigenvalues --   -0.45489  -0.44348  -0.43004  -0.41577  -0.40072
 Alpha  occ. eigenvalues --   -0.37274  -0.37206  -0.35997  -0.31817  -0.29300
 Alpha  occ. eigenvalues --   -0.29256  -0.22345
 Alpha virt. eigenvalues --    0.00150   0.01431   0.03500   0.04832   0.07070
 Alpha virt. eigenvalues --    0.08252   0.08882   0.09924   0.11270   0.12235
 Alpha virt. eigenvalues --    0.13579   0.14089   0.16138   0.16401   0.16734

 Mulliken charges:
               1
     1  C   -0.070190
     2  C    0.018602
     3  S    0.002925
     4  C   -0.203825
     5  C   -0.348948
     6  C   -0.171977
     7  C   -0.091613
     8  C   -0.062816
     9  H    0.110936
    10  C    0.022017
    11  C   -0.177039
    12  C   -0.065708
    13  C   -0.186290
    14  H    0.104967
    15  H    0.091755
    16  H    0.094782
    17  H    0.099550
    18  C   -0.114550
    19  H    0.138171
    20  H    0.085158
    21  H    0.121962
    22  H    0.146490
    23  H    0.120603
    24  S    0.335039
 Sum of Mulliken charges =  -0.00000

 Dipole moment (field-independent basis, Debye):
    X=              4.5865    Y=             -0.9039    Z=             -4.4494  Tot=              6.4536
 Quadrupole moment (field-independent basis, Debye-Ang):
   XX=            -86.2307   YY=            -87.1371   ZZ=           -101.0388
   XY=             -1.1397   XZ=              5.4001   YZ=              2.5146

 Normal termination of Gaussian 16 at Mon Jan 25 23:17:16 2021.
