 Gaussian 16, Revision A.03,
 Gaussian 16:  EM64L-G16RevA.03 25-Dec-2016

 ----------------------------------------------------------------------
 #P LC-wHPBE/TZVP iop(3/107=0221200000, 3/108=0221200000) scf=(conver=6
 ,fermi,ndamp=35,noincfock,novaracc,vshift=500,xqc)
 ----------------------------------------------------------------------

 ----------
 H10 C12 S2
 ----------
 Symbolic Z-matrix:
 Charge =  1 Multiplicity = 2

                         Standard orientation:
 ---------------------------------------------------------------------
 Center     Atomic      Atomic             Coordinates (Angstroms)
 Number     Number       Type             X           Y           Z
 ---------------------------------------------------------------------
      1          6           0        2.574063    1.434391   -0.049117
      2          6           0        1.368901    0.745264   -0.216328
      3         16           0       -0.093606    1.678504   -0.585022
      4          6           0        1.397687   -0.626896   -0.046009
      5          6           0       -1.500395   -0.811934    0.077279
      6          6           0       -1.478004   -0.220423    1.307027
      7          6           0        3.746915    0.783096    0.229547
      8          6           0        2.584351   -1.293751    0.256604
      9          1           0        0.039943   -1.860892   -1.547006
     10          6           0       -2.473105   -0.786527   -0.925649
     11          6           0       -2.645316    0.559969    1.492438
     12          6           0       -3.655495    0.649979    0.563531
     13          6           0       -3.583956   -0.035098   -0.656753
     14          1           0       -2.357645   -1.302286   -1.874829
     15          1           0       -2.763398    1.119309    2.419207
     16          1           0       -4.527775    1.262476    0.773175
     17          1           0       -4.391412    0.038194   -1.378729
     18          6           0        3.759914   -0.597536    0.384558
     19          1           0        2.557315    2.514169   -0.138510
     20          1           0        0.525974    2.528359   -1.431800
     21          1           0        4.665467    1.345208    0.349638
     22          1           0        2.558102   -2.368477    0.406674
     23          1           0        4.681894   -1.115025    0.619767
     24         16           0       -0.004008   -1.738768   -0.208750
 ---------------------------------------------------------------------

 SCF Done:  E(ULC-wHPBE) =  -1258.74583870     A.U. after   33 cycles
 SCF Done:  E(ULC-wHPBE) =  -1258.74591256     a.u. after    2 cycles

 The electronic state is 2-A.
 Alpha  occ. eigenvalues --  -88.47736 -88.35495 -10.22937 -10.21985 -10.21741
 Alpha  occ. eigenvalues --  -10.20963 -10.18356 -10.17302 -10.17273 -10.16665
 Alpha  occ. eigenvalues --  -10.16584 -10.15881 -10.15652 -10.15454  -8.06783
 Alpha  occ. eigenvalues --   -7.94814  -6.08680  -6.08624  -6.07894  -5.96990
 Alpha  occ. eigenvalues --   -5.96497  -5.95721  -1.12647  -1.08459  -1.05122
 Alpha  occ. eigenvalues --   -0.99844  -0.97563  -0.97286  -0.93902  -0.91106
 Alpha  occ. eigenvalues --   -0.84086  -0.83028  -0.82676  -0.79915  -0.75533
 Alpha  occ. eigenvalues --   -0.74047  -0.70816  -0.69295  -0.68640  -0.67546
 Alpha  occ. eigenvalues --   -0.65779  -0.65247  -0.64207  -0.63221  -0.62312
 Alpha  occ. eigenvalues --   -0.61233  -0.59218  -0.58651  -0.56543  -0.56216
 Alpha  occ. eigenvalues --   -0.54486  -0.51822  -0.50706  -0.49777  -0.49148
 Alpha  occ. eigenvalues --   -0.48014  -0.43755
 Alpha virt. eigenvalues --   -0.13525  -0.13179  -0.11615  -0.10201  -0.09139
 Alpha virt. eigenvalues --   -0.07358  -0.05278  -0.03934  -0.00723   0.00563
 Alpha virt. eigenvalues --    0.01489   0.02836   0.03094   0.04325   0.04774

  Beta  occ. eigenvalues --  -88.47722 -88.35494 -10.22936 -10.21745 -10.20960
  Beta  occ. eigenvalues --  -10.20421 -10.18258 -10.17309 -10.17271 -10.16655
  Beta  occ. eigenvalues --  -10.16538 -10.15883 -10.15650 -10.15454  -8.06767
  Beta  occ. eigenvalues --   -7.94813  -6.08659  -6.08605  -6.07876  -5.96990
  Beta  occ. eigenvalues --   -5.96496  -5.95721  -1.12404  -1.08194  -1.04975
  Beta  occ. eigenvalues --   -0.99832  -0.97228  -0.96598  -0.93688  -0.91054
  Beta  occ. eigenvalues --   -0.83653  -0.82677  -0.82591  -0.79559  -0.75060
  Beta  occ. eigenvalues --   -0.73972  -0.70647  -0.69063  -0.68142  -0.67346
  Beta  occ. eigenvalues --   -0.65650  -0.64948  -0.64082  -0.63022  -0.62184
  Beta  occ. eigenvalues --   -0.60169  -0.59061  -0.58343  -0.56468  -0.55884
  Beta  occ. eigenvalues --   -0.54484  -0.50888  -0.49553  -0.48681  -0.47861
  Beta  occ. eigenvalues --   -0.43753
  Beta virt. eigenvalues --   -0.21877  -0.13368  -0.12567  -0.11405  -0.10010
  Beta virt. eigenvalues --   -0.08640  -0.07257  -0.05136  -0.03735  -0.00704
  Beta virt. eigenvalues --    0.00700   0.01516   0.03048   0.03171   0.04737

 Mulliken charges and spin densities:
               1          2
     1  C   -0.059778  -0.002251
     2  C    0.024475   0.003116
     3  S   -0.015168  -0.002103
     4  C   -0.301981   0.000610
     5  C   -0.303397  -0.063930
     6  C    0.103835   0.970201
     7  C   -0.073876   0.001713
     8  C   -0.044587  -0.000047
     9  H    0.167936   0.000307
    10  C    0.076911   0.062227
    11  C   -0.114851  -0.035582
    12  C   -0.056890   0.065962
    13  C   -0.159005  -0.054145
    14  H    0.173906   0.005089
    15  H    0.180065   0.024724
    16  H    0.168835   0.004093
    17  H    0.166467   0.003766
    18  C   -0.117729  -0.000315
    19  H    0.168238   0.000062
    20  H    0.137878   0.000553
    21  H    0.160402  -0.000046
    22  H    0.178371   0.000018
    23  H    0.158701   0.000001
    24  S    0.381241   0.015975
 Sum of Mulliken charges =   1.00000   1.00000

 Dipole moment (field-independent basis, Debye):
    X=             -0.1553    Y=             -1.5680    Z=             -1.8131  Tot=              2.4021
 Quadrupole moment (field-independent basis, Debye-Ang):
   XX=            -49.3531   YY=            -76.3361   ZZ=            -85.9286
   XY=             -1.7502   XZ=              2.4917   YZ=              3.2095

 Normal termination of Gaussian 16 at Mon Jan 25 23:42:54 2021.
