 Gaussian 16, Revision A.03,
 Gaussian 16:  EM64L-G16RevA.03 25-Dec-2016

 ----------------------------------------------------------------------
 #P LC-wHPBE/TZVP iop(3/107=0236300000, 3/108=0236300000) scf=(conver=6
 ,fermi,ndamp=35,noincfock,novaracc,vshift=500,xqc)
 ----------------------------------------------------------------------

 ----------
 H10 C12 S2
 ----------
 Symbolic Z-matrix:
 Charge =  0 Multiplicity = 1

                         Standard orientation:
 ---------------------------------------------------------------------
 Center     Atomic      Atomic             Coordinates (Angstroms)
 Number     Number       Type             X           Y           Z
 ---------------------------------------------------------------------
      1          6           0        2.574063    1.434391   -0.049117
      2          6           0        1.368901    0.745264   -0.216328
      3         16           0       -0.093606    1.678504   -0.585022
      4          6           0        1.397687   -0.626896   -0.046009
      5          6           0       -1.500395   -0.811934    0.077279
      6          6           0       -1.478004   -0.220423    1.307027
      7          6           0        3.746915    0.783096    0.229547
      8          6           0        2.584351   -1.293751    0.256604
      9          1           0        0.039943   -1.860892   -1.547006
     10          6           0       -2.473105   -0.786527   -0.925649
     11          6           0       -2.645316    0.559969    1.492438
     12          6           0       -3.655495    0.649979    0.563531
     13          6           0       -3.583956   -0.035098   -0.656753
     14          1           0       -2.357645   -1.302286   -1.874829
     15          1           0       -2.763398    1.119309    2.419207
     16          1           0       -4.527775    1.262476    0.773175
     17          1           0       -4.391412    0.038194   -1.378729
     18          6           0        3.759914   -0.597536    0.384558
     19          1           0        2.557315    2.514169   -0.138510
     20          1           0        0.525974    2.528359   -1.431800
     21          1           0        4.665467    1.345208    0.349638
     22          1           0        2.558102   -2.368477    0.406674
     23          1           0        4.681894   -1.115025    0.619767
     24         16           0       -0.004008   -1.738768   -0.208750
 ---------------------------------------------------------------------

 SCF Done:  E(RLC-wHPBE) =  -1258.98315874     A.U. after   18 cycles

 The electronic state is 1-A.
 Alpha  occ. eigenvalues --  -88.32162 -88.23007 -10.08995 -10.08796 -10.05539
 Alpha  occ. eigenvalues --  -10.04686 -10.04577 -10.04441 -10.03408 -10.01297
 Alpha  occ. eigenvalues --  -10.00087  -9.99452  -9.98340  -9.94604  -7.91220
 Alpha  occ. eigenvalues --   -7.82264  -5.93158  -5.92993  -5.92290  -5.84428
 Alpha  occ. eigenvalues --   -5.83937  -5.83135  -0.97961  -0.93580  -0.89046
 Alpha  occ. eigenvalues --   -0.87828  -0.83708  -0.79668  -0.78582  -0.76946
 Alpha  occ. eigenvalues --   -0.70997  -0.69146  -0.65874  -0.63843  -0.61461
 Alpha  occ. eigenvalues --   -0.58472  -0.57676  -0.55826  -0.54100  -0.52326
 Alpha  occ. eigenvalues --   -0.51924  -0.49989  -0.49937  -0.47724  -0.46762
 Alpha  occ. eigenvalues --   -0.46502  -0.45359  -0.43989  -0.42529  -0.41010
 Alpha  occ. eigenvalues --   -0.38148  -0.38063  -0.36770  -0.32550  -0.29992
 Alpha  occ. eigenvalues --   -0.29863  -0.23124
 Alpha virt. eigenvalues --    0.00642   0.01948   0.04094   0.05404   0.07683
 Alpha virt. eigenvalues --    0.08873   0.09530   0.10560   0.11822   0.12902
 Alpha virt. eigenvalues --    0.14105   0.14647   0.16701   0.16943   0.17269

 Mulliken charges:
               1
     1  C   -0.072807
     2  C    0.016420
     3  S    0.005376
     4  C   -0.206414
     5  C   -0.351310
     6  C   -0.177859
     7  C   -0.094528
     8  C   -0.065648
     9  H    0.113025
    10  C    0.019197
    11  C   -0.178357
    12  C   -0.068366
    13  C   -0.190555
    14  H    0.108405
    15  H    0.093915
    16  H    0.098131
    17  H    0.102514
    18  C   -0.118547
    19  H    0.141780
    20  H    0.085656
    21  H    0.125495
    22  H    0.150399
    23  H    0.124071
    24  S    0.340007
 Sum of Mulliken charges =  -0.00000

 Dipole moment (field-independent basis, Debye):
    X=              4.6642    Y=             -0.9340    Z=             -4.5045  Tot=              6.5511
 Quadrupole moment (field-independent basis, Debye-Ang):
   XX=            -86.1215   YY=            -86.9634   ZZ=           -101.0006
   XY=             -1.1463   XZ=              5.4440   YZ=              2.5687

 Normal termination of Gaussian 16 at Mon Jan 25 22:56:38 2021.
