 Gaussian 16, Revision A.03,
 Gaussian 16:  EM64L-G16RevA.03 25-Dec-2016

 ----------------------------------------------------------------------
 #P LC-wHPBE/TZVP iop(3/107=0156200000, 3/108=0156200000) scf=(conver=6
 ,fermi,ndamp=35,noincfock,novaracc,vshift=500,xqc)
 ----------------------------------------------------------------------

 ----------
 H10 C12 S2
 ----------
 Symbolic Z-matrix:
 Charge =  0 Multiplicity = 1

                         Standard orientation:
 ---------------------------------------------------------------------
 Center     Atomic      Atomic             Coordinates (Angstroms)
 Number     Number       Type             X           Y           Z
 ---------------------------------------------------------------------
      1          6           0        2.574063    1.434391   -0.049117
      2          6           0        1.368901    0.745264   -0.216328
      3         16           0       -0.093606    1.678504   -0.585022
      4          6           0        1.397687   -0.626896   -0.046009
      5          6           0       -1.500395   -0.811934    0.077279
      6          6           0       -1.478004   -0.220423    1.307027
      7          6           0        3.746915    0.783096    0.229547
      8          6           0        2.584351   -1.293751    0.256604
      9          1           0        0.039943   -1.860892   -1.547006
     10          6           0       -2.473105   -0.786527   -0.925649
     11          6           0       -2.645316    0.559969    1.492438
     12          6           0       -3.655495    0.649979    0.563531
     13          6           0       -3.583956   -0.035098   -0.656753
     14          1           0       -2.357645   -1.302286   -1.874829
     15          1           0       -2.763398    1.119309    2.419207
     16          1           0       -4.527775    1.262476    0.773175
     17          1           0       -4.391412    0.038194   -1.378729
     18          6           0        3.759914   -0.597536    0.384558
     19          1           0        2.557315    2.514169   -0.138510
     20          1           0        0.525974    2.528359   -1.431800
     21          1           0        4.665467    1.345208    0.349638
     22          1           0        2.558102   -2.368477    0.406674
     23          1           0        4.681894   -1.115025    0.619767
     24         16           0       -0.004008   -1.738768   -0.208750
 ---------------------------------------------------------------------

 SCF Done:  E(RLC-wHPBE) =  -1258.92254056     A.U. after   21 cycles

 The electronic state is 1-A.
 Alpha  occ. eigenvalues --  -88.27422 -88.18679 -10.04262 -10.04094 -10.00859
 Alpha  occ. eigenvalues --  -10.00028  -9.99966  -9.99804  -9.98997  -9.96866
 Alpha  occ. eigenvalues --   -9.95782  -9.95123  -9.94134  -9.90555  -7.86403
 Alpha  occ. eigenvalues --   -7.77851  -5.88435  -5.88279  -5.87595  -5.80101
 Alpha  occ. eigenvalues --   -5.79632  -5.78851  -0.92996  -0.88750  -0.84410
 Alpha  occ. eigenvalues --   -0.83111  -0.79093  -0.75206  -0.74241  -0.72618
 Alpha  occ. eigenvalues --   -0.66739  -0.65010  -0.61904  -0.59952  -0.57576
 Alpha  occ. eigenvalues --   -0.54740  -0.53938  -0.52176  -0.50503  -0.48898
 Alpha  occ. eigenvalues --   -0.48442  -0.46568  -0.46230  -0.44378  -0.43473
 Alpha  occ. eigenvalues --   -0.43190  -0.42071  -0.40788  -0.39436  -0.37906
 Alpha  occ. eigenvalues --   -0.35302  -0.35187  -0.34117  -0.30057  -0.27741
 Alpha  occ. eigenvalues --   -0.27630  -0.20578
 Alpha virt. eigenvalues --   -0.01150   0.00062   0.02000   0.03348   0.05493
 Alpha virt. eigenvalues --    0.06655   0.07253   0.08329   0.09828   0.10602
 Alpha virt. eigenvalues --    0.12193   0.12632   0.14638   0.14960   0.15329

 Mulliken charges:
               1
     1  C   -0.065450
     2  C    0.021223
     3  S   -0.003308
     4  C   -0.198205
     5  C   -0.343579
     6  C   -0.160364
     7  C   -0.087710
     8  C   -0.058650
     9  H    0.105958
    10  C    0.025131
    11  C   -0.175590
    12  C   -0.062425
    13  C   -0.178638
    14  H    0.100282
    15  H    0.089404
    16  H    0.090183
    17  H    0.095927
    18  C   -0.108455
    19  H    0.132598
    20  H    0.084330
    21  H    0.116906
    22  H    0.140445
    23  H    0.115729
    24  S    0.324257
 Sum of Mulliken charges =  -0.00000

 Dipole moment (field-independent basis, Debye):
    X=              4.3988    Y=             -0.8368    Z=             -4.3255  Tot=              6.2257
 Quadrupole moment (field-independent basis, Debye-Ang):
   XX=            -86.4335   YY=            -87.5092   ZZ=           -101.1135
   XY=             -1.1316   XZ=              5.3106   YZ=              2.4017

 Normal termination of Gaussian 16 at Mon Jan 25 22:38:29 2021.
