 Gaussian 16, Revision A.03,
 Gaussian 16:  EM64L-G16RevA.03 25-Dec-2016

 ----------------------------------------------------------------------
 #P LC-wHPBE/TZVP iop(3/107=0218100000, 3/108=0218100000) scf=(conver=6
 ,fermi,ndamp=35,noincfock,novaracc,vshift=500,xqc)
 ----------------------------------------------------------------------

 ----------
 H10 C12 S2
 ----------
 Symbolic Z-matrix:
 Charge =  1 Multiplicity = 2

                         Standard orientation:
 ---------------------------------------------------------------------
 Center     Atomic      Atomic             Coordinates (Angstroms)
 Number     Number       Type             X           Y           Z
 ---------------------------------------------------------------------
      1          6           0        2.574063    1.434391   -0.049117
      2          6           0        1.368901    0.745264   -0.216328
      3         16           0       -0.093606    1.678504   -0.585022
      4          6           0        1.397687   -0.626896   -0.046009
      5          6           0       -1.500395   -0.811934    0.077279
      6          6           0       -1.478004   -0.220423    1.307027
      7          6           0        3.746915    0.783096    0.229547
      8          6           0        2.584351   -1.293751    0.256604
      9          1           0        0.039943   -1.860892   -1.547006
     10          6           0       -2.473105   -0.786527   -0.925649
     11          6           0       -2.645316    0.559969    1.492438
     12          6           0       -3.655495    0.649979    0.563531
     13          6           0       -3.583956   -0.035098   -0.656753
     14          1           0       -2.357645   -1.302286   -1.874829
     15          1           0       -2.763398    1.119309    2.419207
     16          1           0       -4.527775    1.262476    0.773175
     17          1           0       -4.391412    0.038194   -1.378729
     18          6           0        3.759914   -0.597536    0.384558
     19          1           0        2.557315    2.514169   -0.138510
     20          1           0        0.525974    2.528359   -1.431800
     21          1           0        4.665467    1.345208    0.349638
     22          1           0        2.558102   -2.368477    0.406674
     23          1           0        4.681894   -1.115025    0.619767
     24         16           0       -0.004008   -1.738768   -0.208750
 ---------------------------------------------------------------------

 SCF Done:  E(ULC-wHPBE) =  -1258.74359914     A.U. after   33 cycles
 SCF Done:  E(ULC-wHPBE) =  -1258.74362944     a.u. after    2 cycles

 The electronic state is 2-A.
 Alpha  occ. eigenvalues --  -88.47554 -88.35327 -10.22759 -10.21808 -10.21561
 Alpha  occ. eigenvalues --  -10.20784 -10.18182 -10.17132 -10.17096 -10.16493
 Alpha  occ. eigenvalues --  -10.16412 -10.15707 -10.15476 -10.15279  -8.06598
 Alpha  occ. eigenvalues --   -7.94642  -6.08500  -6.08443  -6.07714  -5.96823
 Alpha  occ. eigenvalues --   -5.96330  -5.95556  -1.12457  -1.08273  -1.04940
 Alpha  occ. eigenvalues --   -0.99665  -0.97389  -0.97112  -0.93732  -0.90940
 Alpha  occ. eigenvalues --   -0.83932  -0.82875  -0.82520  -0.79767  -0.75392
 Alpha  occ. eigenvalues --   -0.73908  -0.70680  -0.69161  -0.68510  -0.67416
 Alpha  occ. eigenvalues --   -0.65650  -0.65120  -0.64081  -0.63094  -0.62184
 Alpha  occ. eigenvalues --   -0.61107  -0.59097  -0.58534  -0.56430  -0.56105
 Alpha  occ. eigenvalues --   -0.54380  -0.51706  -0.50603  -0.49690  -0.49062
 Alpha  occ. eigenvalues --   -0.47930  -0.43670
 Alpha virt. eigenvalues --   -0.13589  -0.13244  -0.11682  -0.10269  -0.09215
 Alpha virt. eigenvalues --   -0.07436  -0.05359  -0.04014  -0.00803   0.00494
 Alpha virt. eigenvalues --    0.01421   0.02770   0.03023   0.04226   0.04706

  Beta  occ. eigenvalues --  -88.47540 -88.35327 -10.22757 -10.21565 -10.20780
  Beta  occ. eigenvalues --  -10.20246 -10.18085 -10.17138 -10.17094 -10.16482
  Beta  occ. eigenvalues --  -10.16367 -10.15709 -10.15474 -10.15279  -8.06582
  Beta  occ. eigenvalues --   -7.94642  -6.08478  -6.08424  -6.07696  -5.96823
  Beta  occ. eigenvalues --   -5.96330  -5.95555  -1.12214  -1.08008  -1.04793
  Beta  occ. eigenvalues --   -0.99653  -0.97053  -0.96428  -0.93519  -0.90888
  Beta  occ. eigenvalues --   -0.83499  -0.82524  -0.82438  -0.79412  -0.74923
  Beta  occ. eigenvalues --   -0.73833  -0.70512  -0.68930  -0.68013  -0.67217
  Beta  occ. eigenvalues --   -0.65522  -0.64821  -0.63957  -0.62896  -0.62055
  Beta  occ. eigenvalues --   -0.60051  -0.58942  -0.58227  -0.56355  -0.55775
  Beta  occ. eigenvalues --   -0.54378  -0.50787  -0.49465  -0.48598  -0.47778
  Beta  occ. eigenvalues --   -0.43667
  Beta virt. eigenvalues --   -0.21975  -0.13431  -0.12635  -0.11472  -0.10079
  Beta virt. eigenvalues --   -0.08717  -0.07335  -0.05217  -0.03816  -0.00784
  Beta virt. eigenvalues --    0.00631   0.01448   0.02983   0.03101   0.04647

 Mulliken charges and spin densities:
               1          2
     1  C   -0.059524  -0.002248
     2  C    0.024868   0.003135
     3  S   -0.015287  -0.002102
     4  C   -0.301788   0.000606
     5  C   -0.303260  -0.063348
     6  C    0.103828   0.969208
     7  C   -0.073539   0.001718
     8  C   -0.044283  -0.000048
     9  H    0.167839   0.000307
    10  C    0.077361   0.061850
    11  C   -0.114701  -0.035027
    12  C   -0.056485   0.065563
    13  C   -0.158790  -0.053659
    14  H    0.173578   0.005132
    15  H    0.179837   0.024729
    16  H    0.168531   0.004138
    17  H    0.166167   0.003768
    18  C   -0.117306  -0.000301
    19  H    0.167880   0.000062
    20  H    0.137831   0.000553
    21  H    0.160054  -0.000046
    22  H    0.178002   0.000019
    23  H    0.158356  -0.000000
    24  S    0.380831   0.015989
 Sum of Mulliken charges =   1.00000   1.00000

 Dipole moment (field-independent basis, Debye):
    X=             -0.1585    Y=             -1.5645    Z=             -1.8119  Tot=              2.3991
 Quadrupole moment (field-independent basis, Debye-Ang):
   XX=            -49.3516   YY=            -76.3463   ZZ=            -85.9365
   XY=             -1.7518   XZ=              2.4903   YZ=              3.2078

 Normal termination of Gaussian 16 at Mon Jan 25 23:57:35 2021.
