 Gaussian 16, Revision A.03,
 Gaussian 16:  EM64L-G16RevA.03 25-Dec-2016

 ----------------------------------------------------------------------
 #P LC-wHPBE/TZVP iop(3/107=0220000000, 3/108=0220000000) scf=(conver=6
 ,fermi,ndamp=35,noincfock,novaracc,vshift=500,xqc)
 ----------------------------------------------------------------------

 ----------
 H10 C12 S2
 ----------
 Symbolic Z-matrix:
 Charge =  1 Multiplicity = 2

                         Standard orientation:
 ---------------------------------------------------------------------
 Center     Atomic      Atomic             Coordinates (Angstroms)
 Number     Number       Type             X           Y           Z
 ---------------------------------------------------------------------
      1          6           0        2.574063    1.434391   -0.049117
      2          6           0        1.368901    0.745264   -0.216328
      3         16           0       -0.093606    1.678504   -0.585022
      4          6           0        1.397687   -0.626896   -0.046009
      5          6           0       -1.500395   -0.811934    0.077279
      6          6           0       -1.478004   -0.220423    1.307027
      7          6           0        3.746915    0.783096    0.229547
      8          6           0        2.584351   -1.293751    0.256604
      9          1           0        0.039943   -1.860892   -1.547006
     10          6           0       -2.473105   -0.786527   -0.925649
     11          6           0       -2.645316    0.559969    1.492438
     12          6           0       -3.655495    0.649979    0.563531
     13          6           0       -3.583956   -0.035098   -0.656753
     14          1           0       -2.357645   -1.302286   -1.874829
     15          1           0       -2.763398    1.119309    2.419207
     16          1           0       -4.527775    1.262476    0.773175
     17          1           0       -4.391412    0.038194   -1.378729
     18          6           0        3.759914   -0.597536    0.384558
     19          1           0        2.557315    2.514169   -0.138510
     20          1           0        0.525974    2.528359   -1.431800
     21          1           0        4.665467    1.345208    0.349638
     22          1           0        2.558102   -2.368477    0.406674
     23          1           0        4.681894   -1.115025    0.619767
     24         16           0       -0.004008   -1.738768   -0.208750
 ---------------------------------------------------------------------

 SCF Done:  E(ULC-wHPBE) =  -1258.74494118     A.U. after   33 cycles
 SCF Done:  E(ULC-wHPBE) =  -1258.74503068     a.u. after    2 cycles

 The electronic state is 2-A.
 Alpha  occ. eigenvalues --  -88.47665 -88.35431 -10.22867 -10.21914 -10.21672
 Alpha  occ. eigenvalues --  -10.20894 -10.18289 -10.17236 -10.17204 -10.16598
 Alpha  occ. eigenvalues --  -10.16518 -10.15814 -10.15584 -10.15387  -8.06711
 Alpha  occ. eigenvalues --   -7.94749  -6.08610  -6.08553  -6.07824  -5.96927
 Alpha  occ. eigenvalues --   -5.96434  -5.95659  -1.12573  -1.08387  -1.05051
 Alpha  occ. eigenvalues --   -0.99775  -0.97495  -0.97218  -0.93836  -0.91042
 Alpha  occ. eigenvalues --   -0.84026  -0.82969  -0.82616  -0.79858  -0.75478
 Alpha  occ. eigenvalues --   -0.73994  -0.70764  -0.69243  -0.68590  -0.67496
 Alpha  occ. eigenvalues --   -0.65729  -0.65198  -0.64159  -0.63172  -0.62263
 Alpha  occ. eigenvalues --   -0.61184  -0.59171  -0.58606  -0.56499  -0.56173
 Alpha  occ. eigenvalues --   -0.54445  -0.51777  -0.50667  -0.49743  -0.49114
 Alpha  occ. eigenvalues --   -0.47981  -0.43723
 Alpha virt. eigenvalues --   -0.13550  -0.13204  -0.11641  -0.10227  -0.09168
 Alpha virt. eigenvalues --   -0.07388  -0.05309  -0.03965  -0.00754   0.00536
 Alpha virt. eigenvalues --    0.01463   0.02811   0.03067   0.04287   0.04748

  Beta  occ. eigenvalues --  -88.47651 -88.35431 -10.22866 -10.21676 -10.20891
  Beta  occ. eigenvalues --  -10.20352 -10.18191 -10.17242 -10.17203 -10.16588
  Beta  occ. eigenvalues --  -10.16471 -10.15816 -10.15582 -10.15387  -8.06695
  Beta  occ. eigenvalues --   -7.94748  -6.08589  -6.08534  -6.07806  -5.96927
  Beta  occ. eigenvalues --   -5.96433  -5.95658  -1.12330  -1.08122  -1.04905
  Beta  occ. eigenvalues --   -0.99763  -0.97160  -0.96532  -0.93623  -0.90990
  Beta  occ. eigenvalues --   -0.83594  -0.82618  -0.82532  -0.79502  -0.75007
  Beta  occ. eigenvalues --   -0.73918  -0.70595  -0.69012  -0.68092  -0.67296
  Beta  occ. eigenvalues --   -0.65600  -0.64899  -0.64034  -0.62973  -0.62134
  Beta  occ. eigenvalues --   -0.60124  -0.59015  -0.58298  -0.56425  -0.55842
  Beta  occ. eigenvalues --   -0.54444  -0.50849  -0.49519  -0.48649  -0.47829
  Beta  occ. eigenvalues --   -0.43720
  Beta virt. eigenvalues --   -0.21915  -0.13392  -0.12593  -0.11431  -0.10037
  Beta virt. eigenvalues --   -0.08670  -0.07287  -0.05167  -0.03767  -0.00735
  Beta virt. eigenvalues --    0.00673   0.01490   0.03023   0.03144   0.04703

 Mulliken charges and spin densities:
               1          2
     1  C   -0.059678  -0.002258
     2  C    0.024633   0.003124
     3  S   -0.015190  -0.002095
     4  C   -0.301909   0.000604
     5  C   -0.303355  -0.063701
     6  C    0.103801   0.969794
     7  C   -0.073745   0.001721
     8  C   -0.044468  -0.000033
     9  H    0.167902   0.000313
    10  C    0.077106   0.062090
    11  C   -0.114784  -0.035358
    12  C   -0.056733   0.065806
    13  C   -0.158926  -0.053960
    14  H    0.173779   0.005107
    15  H    0.179977   0.024726
    16  H    0.168717   0.004111
    17  H    0.166351   0.003766
    18  C   -0.117564  -0.000325
    19  H    0.168098   0.000063
    20  H    0.137858   0.000555
    21  H    0.160265  -0.000046
    22  H    0.178226   0.000018
    23  H    0.158565   0.000001
    24  S    0.381074   0.015975
 Sum of Mulliken charges =   1.00000   1.00000

 Dipole moment (field-independent basis, Debye):
    X=             -0.1565    Y=             -1.5664    Z=             -1.8129  Tot=              2.4010
 Quadrupole moment (field-independent basis, Debye-Ang):
   XX=            -49.3528   YY=            -76.3398   ZZ=            -85.9316
   XY=             -1.7508   XZ=              2.4913   YZ=              3.2087

 Normal termination of Gaussian 16 at Tue Jan 26 00:12:05 2021.
