 Gaussian 16, Revision A.03,
 Gaussian 16:  EM64L-G16RevA.03 25-Dec-2016

 ----------------------------------------------------------------------
 #P LC-wHPBE/TZVP iop(3/107=0221200000, 3/108=0221200000) scf=(conver=6
 ,fermi,ndamp=35,noincfock,novaracc,vshift=500,xqc)
 ----------------------------------------------------------------------

 ----------
 H10 C12 S2
 ----------
 Symbolic Z-matrix:
 Charge =  0 Multiplicity = 1

                         Standard orientation:
 ---------------------------------------------------------------------
 Center     Atomic      Atomic             Coordinates (Angstroms)
 Number     Number       Type             X           Y           Z
 ---------------------------------------------------------------------
      1          6           0        2.574063    1.434391   -0.049117
      2          6           0        1.368901    0.745264   -0.216328
      3         16           0       -0.093606    1.678504   -0.585022
      4          6           0        1.397687   -0.626896   -0.046009
      5          6           0       -1.500395   -0.811934    0.077279
      6          6           0       -1.478004   -0.220423    1.307027
      7          6           0        3.746915    0.783096    0.229547
      8          6           0        2.584351   -1.293751    0.256604
      9          1           0        0.039943   -1.860892   -1.547006
     10          6           0       -2.473105   -0.786527   -0.925649
     11          6           0       -2.645316    0.559969    1.492438
     12          6           0       -3.655495    0.649979    0.563531
     13          6           0       -3.583956   -0.035098   -0.656753
     14          1           0       -2.357645   -1.302286   -1.874829
     15          1           0       -2.763398    1.119309    2.419207
     16          1           0       -4.527775    1.262476    0.773175
     17          1           0       -4.391412    0.038194   -1.378729
     18          6           0        3.759914   -0.597536    0.384558
     19          1           0        2.557315    2.514169   -0.138510
     20          1           0        0.525974    2.528359   -1.431800
     21          1           0        4.665467    1.345208    0.349638
     22          1           0        2.558102   -2.368477    0.406674
     23          1           0        4.681894   -1.115025    0.619767
     24         16           0       -0.004008   -1.738768   -0.208750
 ---------------------------------------------------------------------

 SCF Done:  E(RLC-wHPBE) =  -1258.97235981     A.U. after   19 cycles

 The electronic state is 1-A.
 Alpha  occ. eigenvalues --  -88.31269 -88.22190 -10.08105 -10.07911 -10.04660
 Alpha  occ. eigenvalues --  -10.03811 -10.03712 -10.03572 -10.02572 -10.00457
 Alpha  occ. eigenvalues --   -9.99272  -9.98631  -9.97542  -9.93831  -7.90309
 Alpha  occ. eigenvalues --   -7.81428  -5.92270  -5.92107  -5.91408  -5.83613
 Alpha  occ. eigenvalues --   -5.83127  -5.82329  -0.97029  -0.92677  -0.88177
 Alpha  occ. eigenvalues --   -0.86954  -0.82859  -0.78851  -0.77776  -0.76153
 Alpha  occ. eigenvalues --   -0.70232  -0.68407  -0.65158  -0.63148  -0.60779
 Alpha  occ. eigenvalues --   -0.57816  -0.57023  -0.55191  -0.53473  -0.51732
 Alpha  occ. eigenvalues --   -0.51320  -0.49383  -0.49307  -0.47142  -0.46191
 Alpha  occ. eigenvalues --   -0.45938  -0.44795  -0.43439  -0.41997  -0.40488
 Alpha  occ. eigenvalues --   -0.37660  -0.37588  -0.36343  -0.32145  -0.29609
 Alpha  occ. eigenvalues --   -0.29529  -0.22689
 Alpha virt. eigenvalues --    0.00374   0.01666   0.03768   0.05091   0.07348
 Alpha virt. eigenvalues --    0.08533   0.09174   0.10211   0.11521   0.12534
 Alpha virt. eigenvalues --    0.13818   0.14343   0.16395   0.16649   0.16977

 Mulliken charges:
               1
     1  C   -0.071311
     2  C    0.017706
     3  S    0.004058
     4  C   -0.204976
     5  C   -0.350012
     6  C   -0.174509
     7  C   -0.092812
     8  C   -0.063998
     9  H    0.111868
    10  C    0.020887
    11  C   -0.177564
    12  C   -0.066781
    13  C   -0.188111
    14  H    0.106377
    15  H    0.092617
    16  H    0.096157
    17  H    0.100750
    18  C   -0.116214
    19  H    0.139677
    20  H    0.085363
    21  H    0.123422
    22  H    0.148120
    23  H    0.122032
    24  S    0.337252
 Sum of Mulliken charges =  -0.00000

 Dipole moment (field-independent basis, Debye):
    X=              4.6213    Y=             -0.9173    Z=             -4.4738  Tot=              6.4971
 Quadrupole moment (field-independent basis, Debye-Ang):
   XX=            -86.1838   YY=            -87.0609   ZZ=           -101.0223
   XY=             -1.1424   XZ=              5.4191   YZ=              2.5384

 Normal termination of Gaussian 16 at Mon Jan 25 23:31:57 2021.
