 Gaussian 16, Revision A.03,
 Gaussian 16:  EM64L-G16RevA.03 25-Dec-2016

 ----------------------------------------------------------------------
 #P LC-wHPBE/TZVP iop(3/107=0221900000, 3/108=0221900000) scf=(conver=6
 ,fermi,ndamp=35,noincfock,novaracc,vshift=500,xqc)
 ----------------------------------------------------------------------

 ----------
 H10 C12 S2
 ----------
 Symbolic Z-matrix:
 Charge =  0 Multiplicity = 1

                         Standard orientation:
 ---------------------------------------------------------------------
 Center     Atomic      Atomic             Coordinates (Angstroms)
 Number     Number       Type             X           Y           Z
 ---------------------------------------------------------------------
      1          6           0        2.574063    1.434391   -0.049117
      2          6           0        1.368901    0.745264   -0.216328
      3         16           0       -0.093606    1.678504   -0.585022
      4          6           0        1.397687   -0.626896   -0.046009
      5          6           0       -1.500395   -0.811934    0.077279
      6          6           0       -1.478004   -0.220423    1.307027
      7          6           0        3.746915    0.783096    0.229547
      8          6           0        2.584351   -1.293751    0.256604
      9          1           0        0.039943   -1.860892   -1.547006
     10          6           0       -2.473105   -0.786527   -0.925649
     11          6           0       -2.645316    0.559969    1.492438
     12          6           0       -3.655495    0.649979    0.563531
     13          6           0       -3.583956   -0.035098   -0.656753
     14          1           0       -2.357645   -1.302286   -1.874829
     15          1           0       -2.763398    1.119309    2.419207
     16          1           0       -4.527775    1.262476    0.773175
     17          1           0       -4.391412    0.038194   -1.378729
     18          6           0        3.759914   -0.597536    0.384558
     19          1           0        2.557315    2.514169   -0.138510
     20          1           0        0.525974    2.528359   -1.431800
     21          1           0        4.665467    1.345208    0.349638
     22          1           0        2.558102   -2.368477    0.406674
     23          1           0        4.681894   -1.115025    0.619767
     24         16           0       -0.004008   -1.738768   -0.208750
 ---------------------------------------------------------------------

 SCF Done:  E(RLC-wHPBE) =  -1258.97286932     A.U. after   19 cycles

 The electronic state is 1-A.
 Alpha  occ. eigenvalues --  -88.31310 -88.22228 -10.08146 -10.07952 -10.04701
 Alpha  occ. eigenvalues --  -10.03852 -10.03752 -10.03612 -10.02611 -10.00496
 Alpha  occ. eigenvalues --   -9.99309  -9.98669  -9.97579  -9.93867  -7.90351
 Alpha  occ. eigenvalues --   -7.81467  -5.92312  -5.92148  -5.91449  -5.83651
 Alpha  occ. eigenvalues --   -5.83165  -5.82366  -0.97072  -0.92719  -0.88217
 Alpha  occ. eigenvalues --   -0.86994  -0.82898  -0.78890  -0.77813  -0.76190
 Alpha  occ. eigenvalues --   -0.70268  -0.68441  -0.65192  -0.63180  -0.60811
 Alpha  occ. eigenvalues --   -0.57847  -0.57054  -0.55221  -0.53503  -0.51760
 Alpha  occ. eigenvalues --   -0.51348  -0.49411  -0.49337  -0.47170  -0.46218
 Alpha  occ. eigenvalues --   -0.45964  -0.44822  -0.43465  -0.42022  -0.40513
 Alpha  occ. eigenvalues --   -0.37683  -0.37611  -0.36364  -0.32164  -0.29628
 Alpha  occ. eigenvalues --   -0.29545  -0.22710
 Alpha virt. eigenvalues --    0.00387   0.01680   0.03784   0.05106   0.07364
 Alpha virt. eigenvalues --    0.08550   0.09191   0.10228   0.11536   0.12552
 Alpha virt. eigenvalues --    0.13832   0.14358   0.16410   0.16663   0.16991

 Mulliken charges:
               1
     1  C   -0.071380
     2  C    0.017649
     3  S    0.004124
     4  C   -0.205044
     5  C   -0.350075
     6  C   -0.174663
     7  C   -0.092888
     8  C   -0.064072
     9  H    0.111923
    10  C    0.020814
    11  C   -0.177598
    12  C   -0.066851
    13  C   -0.188223
    14  H    0.106467
    15  H    0.092673
    16  H    0.096245
    17  H    0.100828
    18  C   -0.116319
    19  H    0.139771
    20  H    0.085376
    21  H    0.123514
    22  H    0.148223
    23  H    0.122123
    24  S    0.337384
 Sum of Mulliken charges =  -0.00000

 Dipole moment (field-independent basis, Debye):
    X=              4.6234    Y=             -0.9181    Z=             -4.4752  Tot=              6.4997
 Quadrupole moment (field-independent basis, Debye-Ang):
   XX=            -86.1809   YY=            -87.0564   ZZ=           -101.0213
   XY=             -1.1426   XZ=              5.4203   YZ=              2.5398

 Normal termination of Gaussian 16 at Mon Jan 25 21:41:07 2021.
