 Gaussian 16, Revision A.03,
 Gaussian 16:  EM64L-G16RevA.03 25-Dec-2016

 ----------------------------------------------------------------------
 #P LC-wHPBE/TZVP iop(3/107=0218100000, 3/108=0218100000) scf=(conver=6
 ,fermi,ndamp=35,noincfock,novaracc,vshift=500,xqc)
 ----------------------------------------------------------------------

 ----------
 H10 C12 S2
 ----------
 Symbolic Z-matrix:
 Charge =  0 Multiplicity = 1

                         Standard orientation:
 ---------------------------------------------------------------------
 Center     Atomic      Atomic             Coordinates (Angstroms)
 Number     Number       Type             X           Y           Z
 ---------------------------------------------------------------------
      1          6           0        2.574063    1.434391   -0.049117
      2          6           0        1.368901    0.745264   -0.216328
      3         16           0       -0.093606    1.678504   -0.585022
      4          6           0        1.397687   -0.626896   -0.046009
      5          6           0       -1.500395   -0.811934    0.077279
      6          6           0       -1.478004   -0.220423    1.307027
      7          6           0        3.746915    0.783096    0.229547
      8          6           0        2.584351   -1.293751    0.256604
      9          1           0        0.039943   -1.860892   -1.547006
     10          6           0       -2.473105   -0.786527   -0.925649
     11          6           0       -2.645316    0.559969    1.492438
     12          6           0       -3.655495    0.649979    0.563531
     13          6           0       -3.583956   -0.035098   -0.656753
     14          1           0       -2.357645   -1.302286   -1.874829
     15          1           0       -2.763398    1.119309    2.419207
     16          1           0       -4.527775    1.262476    0.773175
     17          1           0       -4.391412    0.038194   -1.378729
     18          6           0        3.759914   -0.597536    0.384558
     19          1           0        2.557315    2.514169   -0.138510
     20          1           0        0.525974    2.528359   -1.431800
     21          1           0        4.665467    1.345208    0.349638
     22          1           0        2.558102   -2.368477    0.406674
     23          1           0        4.681894   -1.115025    0.619767
     24         16           0       -0.004008   -1.738768   -0.208750
 ---------------------------------------------------------------------

 SCF Done:  E(RLC-wHPBE) =  -1258.97009360     A.U. after   19 cycles

 The electronic state is 1-A.
 Alpha  occ. eigenvalues --  -88.31085 -88.22023 -10.07922 -10.07730 -10.04480
 Alpha  occ. eigenvalues --  -10.03631 -10.03534 -10.03393 -10.02401 -10.00285
 Alpha  occ. eigenvalues --   -9.99105  -9.98462  -9.97379  -9.93673  -7.90122
 Alpha  occ. eigenvalues --   -7.81257  -5.92088  -5.91925  -5.91227  -5.83446
 Alpha  occ. eigenvalues --   -5.82961  -5.82163  -0.96837  -0.92491  -0.87998
 Alpha  occ. eigenvalues --   -0.86773  -0.82683  -0.78682  -0.77609  -0.75989
 Alpha  occ. eigenvalues --   -0.70072  -0.68252  -0.65010  -0.63003  -0.60636
 Alpha  occ. eigenvalues --   -0.57678  -0.56886  -0.55058  -0.53342  -0.51607
 Alpha  occ. eigenvalues --   -0.51193  -0.49257  -0.49173  -0.47020  -0.46071
 Alpha  occ. eigenvalues --   -0.45818  -0.44676  -0.43323  -0.41885  -0.40378
 Alpha  occ. eigenvalues --   -0.37558  -0.37487  -0.36252  -0.32058  -0.29527
 Alpha  occ. eigenvalues --   -0.29457  -0.22598
 Alpha virt. eigenvalues --    0.00315   0.01605   0.03697   0.05023   0.07275
 Alpha virt. eigenvalues --    0.08460   0.09097   0.10135   0.11455   0.12455
 Alpha virt. eigenvalues --    0.13755   0.14276   0.16328   0.16584   0.16913

 Mulliken charges:
               1
     1  C   -0.071007
     2  C    0.017956
     3  S    0.003764
     4  C   -0.204670
     5  C   -0.349731
     6  C   -0.173825
     7  C   -0.092479
     8  C   -0.063672
     9  H    0.111621
    10  C    0.021206
    11  C   -0.177415
    12  C   -0.066481
    13  C   -0.187616
    14  H    0.105985
    15  H    0.092373
    16  H    0.095775
    17  H    0.100414
    18  C   -0.115756
    19  H    0.139262
    20  H    0.085307
    21  H    0.123018
    22  H    0.147671
    23  H    0.121636
    24  S    0.336665
 Sum of Mulliken charges =  -0.00000

 Dipole moment (field-independent basis, Debye):
    X=              4.6121    Y=             -0.9138    Z=             -4.4673  Tot=              6.4856
 Quadrupole moment (field-independent basis, Debye-Ang):
   XX=            -86.1965   YY=            -87.0813   ZZ=           -101.0268
   XY=             -1.1417   XZ=              5.4140   YZ=              2.5320

 Normal termination of Gaussian 16 at Mon Jan 25 23:46:26 2021.
