 Gaussian 16, Revision A.03,
 Gaussian 16:  EM64L-G16RevA.03 25-Dec-2016

 ----------------------------------------------------------------------
 #P LC-wHPBE/TZVP iop(3/107=0219700000, 3/108=0219700000) scf=(conver=6
 ,fermi,ndamp=35,noincfock,novaracc,vshift=500,xqc)
 ----------------------------------------------------------------------

 ----------
 H10 C12 S2
 ----------
 Symbolic Z-matrix:
 Charge =  0 Multiplicity = 1

                         Standard orientation:
 ---------------------------------------------------------------------
 Center     Atomic      Atomic             Coordinates (Angstroms)
 Number     Number       Type             X           Y           Z
 ---------------------------------------------------------------------
      1          6           0        2.574063    1.434391   -0.049117
      2          6           0        1.368901    0.745264   -0.216328
      3         16           0       -0.093606    1.678504   -0.585022
      4          6           0        1.397687   -0.626896   -0.046009
      5          6           0       -1.500395   -0.811934    0.077279
      6          6           0       -1.478004   -0.220423    1.307027
      7          6           0        3.746915    0.783096    0.229547
      8          6           0        2.584351   -1.293751    0.256604
      9          1           0        0.039943   -1.860892   -1.547006
     10          6           0       -2.473105   -0.786527   -0.925649
     11          6           0       -2.645316    0.559969    1.492438
     12          6           0       -3.655495    0.649979    0.563531
     13          6           0       -3.583956   -0.035098   -0.656753
     14          1           0       -2.357645   -1.302286   -1.874829
     15          1           0       -2.763398    1.119309    2.419207
     16          1           0       -4.527775    1.262476    0.773175
     17          1           0       -4.391412    0.038194   -1.378729
     18          6           0        3.759914   -0.597536    0.384558
     19          1           0        2.557315    2.514169   -0.138510
     20          1           0        0.525974    2.528359   -1.431800
     21          1           0        4.665467    1.345208    0.349638
     22          1           0        2.558102   -2.368477    0.406674
     23          1           0        4.681894   -1.115025    0.619767
     24         16           0       -0.004008   -1.738768   -0.208750
 ---------------------------------------------------------------------

 SCF Done:  E(RLC-wHPBE) =  -1258.97126524     A.U. after   19 cycles

 The electronic state is 1-A.
 Alpha  occ. eigenvalues --  -88.31180 -88.22109 -10.08016 -10.07823 -10.04573
 Alpha  occ. eigenvalues --  -10.03724 -10.03626 -10.03485 -10.02489 -10.00374
 Alpha  occ. eigenvalues --   -9.99191  -9.98549  -9.97463  -9.93754  -7.90219
 Alpha  occ. eigenvalues --   -7.81345  -5.92182  -5.92019  -5.91320  -5.83532
 Alpha  occ. eigenvalues --   -5.83047  -5.82249  -0.96936  -0.92587  -0.88090
 Alpha  occ. eigenvalues --   -0.86866  -0.82774  -0.78769  -0.77695  -0.76073
 Alpha  occ. eigenvalues --   -0.70155  -0.68332  -0.65087  -0.63078  -0.60710
 Alpha  occ. eigenvalues --   -0.57749  -0.56957  -0.55127  -0.53410  -0.51672
 Alpha  occ. eigenvalues --   -0.51258  -0.49322  -0.49242  -0.47083  -0.46133
 Alpha  occ. eigenvalues --   -0.45880  -0.44737  -0.43383  -0.41943  -0.40435
 Alpha  occ. eigenvalues --   -0.37611  -0.37539  -0.36299  -0.32103  -0.29570
 Alpha  occ. eigenvalues --   -0.29495  -0.22645
 Alpha virt. eigenvalues --    0.00346   0.01637   0.03734   0.05058   0.07312
 Alpha virt. eigenvalues --    0.08498   0.09137   0.10174   0.11489   0.12496
 Alpha virt. eigenvalues --    0.13788   0.14311   0.16362   0.16618   0.16946

 Mulliken charges:
               1
     1  C   -0.071164
     2  C    0.017828
     3  S    0.003917
     4  C   -0.204828
     5  C   -0.349877
     6  C   -0.174178
     7  C   -0.092650
     8  C   -0.063840
     9  H    0.111749
    10  C    0.021043
    11  C   -0.177491
    12  C   -0.066635
    13  C   -0.187871
    14  H    0.106187
    15  H    0.092498
    16  H    0.095971
    17  H    0.100586
    18  C   -0.115991
    19  H    0.139475
    20  H    0.085336
    21  H    0.123225
    22  H    0.147902
    23  H    0.121840
    24  S    0.336969
 Sum of Mulliken charges =  -0.00000

 Dipole moment (field-independent basis, Debye):
    X=              4.6169    Y=             -0.9156    Z=             -4.4706  Tot=              6.4916
 Quadrupole moment (field-independent basis, Debye-Ang):
   XX=            -86.1899   YY=            -87.0708   ZZ=           -101.0244
   XY=             -1.1421   XZ=              5.4167   YZ=              2.5353

 Normal termination of Gaussian 16 at Tue Jan 26 00:15:37 2021.
