 Gaussian 16, Revision A.03,
 Gaussian 16:  EM64L-G16RevA.03 25-Dec-2016

 ----------------------------------------------------------------------
 #P LC-wHPBE/TZVP iop(3/107=0328100000, 3/108=0328100000) scf=(conver=6
 ,fermi,ndamp=35,noincfock,novaracc,vshift=500,xqc)
 ----------------------------------------------------------------------

 ----------
 H10 C12 S2
 ----------
 Symbolic Z-matrix:
 Charge =  1 Multiplicity = 2

                         Standard orientation:
 ---------------------------------------------------------------------
 Center     Atomic      Atomic             Coordinates (Angstroms)
 Number     Number       Type             X           Y           Z
 ---------------------------------------------------------------------
      1          6           0        2.574063    1.434391   -0.049117
      2          6           0        1.368901    0.745264   -0.216328
      3         16           0       -0.093606    1.678504   -0.585022
      4          6           0        1.397687   -0.626896   -0.046009
      5          6           0       -1.500395   -0.811934    0.077279
      6          6           0       -1.478004   -0.220423    1.307027
      7          6           0        3.746915    0.783096    0.229547
      8          6           0        2.584351   -1.293751    0.256604
      9          1           0        0.039943   -1.860892   -1.547006
     10          6           0       -2.473105   -0.786527   -0.925649
     11          6           0       -2.645316    0.559969    1.492438
     12          6           0       -3.655495    0.649979    0.563531
     13          6           0       -3.583956   -0.035098   -0.656753
     14          1           0       -2.357645   -1.302286   -1.874829
     15          1           0       -2.763398    1.119309    2.419207
     16          1           0       -4.527775    1.262476    0.773175
     17          1           0       -4.391412    0.038194   -1.378729
     18          6           0        3.759914   -0.597536    0.384558
     19          1           0        2.557315    2.514169   -0.138510
     20          1           0        0.525974    2.528359   -1.431800
     21          1           0        4.665467    1.345208    0.349638
     22          1           0        2.558102   -2.368477    0.406674
     23          1           0        4.681894   -1.115025    0.619767
     24         16           0       -0.004008   -1.738768   -0.208750
 ---------------------------------------------------------------------

 SCF Done:  E(ULC-wHPBE) =  -1258.73313821     A.U. after   33 cycles
 SCF Done:  E(ULC-wHPBE) =  -1258.81217811     a.u. after   54 cycles

 The electronic state is 2-A.
 Alpha  occ. eigenvalues --  -88.53991 -88.41276 -10.29075 -10.28149 -10.27942
 Alpha  occ. eigenvalues --  -10.27147 -10.24352 -10.23379 -10.23190 -10.22583
 Alpha  occ. eigenvalues --  -10.22520 -10.21887 -10.21730 -10.21475  -8.13185
 Alpha  occ. eigenvalues --   -8.00758  -6.14851  -6.14797  -6.14033  -6.02720
 Alpha  occ. eigenvalues --   -6.02195  -6.01397  -1.19010  -1.14683  -1.11113
 Alpha  occ. eigenvalues --   -1.05693  -1.03239  -1.02941  -0.99359  -0.96408
 Alpha  occ. eigenvalues --   -0.88934  -0.87781  -0.87534  -0.84529  -0.79784
 Alpha  occ. eigenvalues --   -0.78232  -0.74894  -0.73337  -0.72563  -0.71440
 Alpha  occ. eigenvalues --   -0.69599  -0.69054  -0.67965  -0.66948  -0.66034
 Alpha  occ. eigenvalues --   -0.64995  -0.62706  -0.62099  -0.59894  -0.59463
 Alpha  occ. eigenvalues --   -0.57540  -0.55324  -0.53557  -0.52136  -0.51423
 Alpha  occ. eigenvalues --   -0.50261  -0.46101
 Alpha virt. eigenvalues --   -0.11977  -0.11613  -0.09994  -0.08549  -0.07179
 Alpha virt. eigenvalues --   -0.05344  -0.03146  -0.01879   0.01321   0.02262
 Alpha virt. eigenvalues --    0.03180   0.04432   0.04831   0.06400   0.06927

  Beta  occ. eigenvalues --  -88.53977 -88.41276 -10.29109 -10.27949 -10.27143
  Beta  occ. eigenvalues --  -10.26536 -10.24233 -10.23377 -10.23231 -10.22618
  Beta  occ. eigenvalues --  -10.22435 -10.21889 -10.21728 -10.21476  -8.13169
  Beta  occ. eigenvalues --   -8.00758  -6.14831  -6.14777  -6.14015  -6.02719
  Beta  occ. eigenvalues --   -6.02195  -6.01397  -1.18750  -1.14399  -1.10959
  Beta  occ. eigenvalues --   -1.05679  -1.02892  -1.02110  -0.99109  -0.96341
  Beta  occ. eigenvalues --   -0.88457  -0.87514  -0.87275  -0.84087  -0.79169
  Beta  occ. eigenvalues --   -0.78153  -0.74700  -0.73065  -0.72010  -0.71198
  Beta  occ. eigenvalues --   -0.69432  -0.68745  -0.67823  -0.66726  -0.65915
  Beta  occ. eigenvalues --   -0.63661  -0.62493  -0.61722  -0.59831  -0.59085
  Beta  occ. eigenvalues --   -0.57540  -0.53682  -0.51935  -0.50880  -0.50090
  Beta  occ. eigenvalues --   -0.46101
  Beta virt. eigenvalues --   -0.19161  -0.11811  -0.10866  -0.09808  -0.08305
  Beta virt. eigenvalues --   -0.06659  -0.05253  -0.02998  -0.01658   0.01342
  Beta virt. eigenvalues --    0.02403   0.03212   0.04623   0.04892   0.06579

 Mulliken charges and spin densities:
               1          2
     1  C   -0.068899  -0.002442
     2  C    0.010836   0.002760
     3  S   -0.016412  -0.002336
     4  C   -0.306465   0.000342
     5  C   -0.302919  -0.091104
     6  C    0.102301   1.011870
     7  C   -0.086808   0.001708
     8  C   -0.055971  -0.000234
     9  H    0.171204   0.000041
    10  C    0.056055   0.081627
    11  C   -0.121587  -0.062592
    12  C   -0.074698   0.087316
    13  C   -0.165769  -0.077865
    14  H    0.187436   0.003403
    15  H    0.190073   0.024735
    16  H    0.181528   0.002331
    17  H    0.179321   0.004191
    18  C   -0.134175  -0.000527
    19  H    0.182550   0.000074
    20  H    0.140369   0.000517
    21  H    0.174831  -0.000054
    22  H    0.193439   0.000001
    23  H    0.173096   0.000009
    24  S    0.390660   0.016229
 Sum of Mulliken charges =   1.00000   1.00000

 Dipole moment (field-independent basis, Debye):
    X=             -0.0544    Y=             -1.6698    Z=             -1.8434  Tot=              2.4878
 Quadrupole moment (field-independent basis, Debye-Ang):
   XX=            -49.3352   YY=            -76.0097   ZZ=            -85.6872
   XY=             -1.7128   XZ=              2.5599   YZ=              3.2638

 Normal termination of Gaussian 16 at Mon Jan 25 22:34:36 2021.
