 Gaussian 16, Revision A.03,
 Gaussian 16:  EM64L-G16RevA.03 25-Dec-2016

 ----------------------------------------------------------------------
 #P LC-wHPBE/TZVP iop(3/107=0219100000, 3/108=0219100000) scf=(conver=6
 ,fermi,ndamp=35,noincfock,novaracc,vshift=500,xqc)
 ----------------------------------------------------------------------

 ----------
 H10 C12 S2
 ----------
 Symbolic Z-matrix:
 Charge =  1 Multiplicity = 2

                         Standard orientation:
 ---------------------------------------------------------------------
 Center     Atomic      Atomic             Coordinates (Angstroms)
 Number     Number       Type             X           Y           Z
 ---------------------------------------------------------------------
      1          6           0        2.574063    1.434391   -0.049117
      2          6           0        1.368901    0.745264   -0.216328
      3         16           0       -0.093606    1.678504   -0.585022
      4          6           0        1.397687   -0.626896   -0.046009
      5          6           0       -1.500395   -0.811934    0.077279
      6          6           0       -1.478004   -0.220423    1.307027
      7          6           0        3.746915    0.783096    0.229547
      8          6           0        2.584351   -1.293751    0.256604
      9          1           0        0.039943   -1.860892   -1.547006
     10          6           0       -2.473105   -0.786527   -0.925649
     11          6           0       -2.645316    0.559969    1.492438
     12          6           0       -3.655495    0.649979    0.563531
     13          6           0       -3.583956   -0.035098   -0.656753
     14          1           0       -2.357645   -1.302286   -1.874829
     15          1           0       -2.763398    1.119309    2.419207
     16          1           0       -4.527775    1.262476    0.773175
     17          1           0       -4.391412    0.038194   -1.378729
     18          6           0        3.759914   -0.597536    0.384558
     19          1           0        2.557315    2.514169   -0.138510
     20          1           0        0.525974    2.528359   -1.431800
     21          1           0        4.665467    1.345208    0.349638
     22          1           0        2.558102   -2.368477    0.406674
     23          1           0        4.681894   -1.115025    0.619767
     24         16           0       -0.004008   -1.738768   -0.208750
 ---------------------------------------------------------------------

 SCF Done:  E(ULC-wHPBE) =  -1258.74418203     A.U. after   33 cycles
 SCF Done:  E(ULC-wHPBE) =  -1258.74436772     a.u. after    3 cycles

 The electronic state is 2-A.
 Alpha  occ. eigenvalues --  -88.47614 -88.35379 -10.22817 -10.21870 -10.21619
 Alpha  occ. eigenvalues --  -10.20841 -10.18238 -10.17188 -10.17153 -10.16548
 Alpha  occ. eigenvalues --  -10.16467 -10.15763 -10.15533 -10.15335  -8.06658
 Alpha  occ. eigenvalues --   -7.94695  -6.08559  -6.08502  -6.07773  -5.96875
 Alpha  occ. eigenvalues --   -5.96382  -5.95607  -1.12519  -1.08333  -1.04999
 Alpha  occ. eigenvalues --   -0.99722  -0.97446  -0.97168  -0.93787  -0.90993
 Alpha  occ. eigenvalues --   -0.83982  -0.82925  -0.82570  -0.79815  -0.75438
 Alpha  occ. eigenvalues --   -0.73953  -0.70724  -0.69204  -0.68553  -0.67458
 Alpha  occ. eigenvalues --   -0.65692  -0.65161  -0.64122  -0.63135  -0.62225
 Alpha  occ. eigenvalues --   -0.61148  -0.59136  -0.58572  -0.56466  -0.56141
 Alpha  occ. eigenvalues --   -0.54414  -0.51745  -0.50636  -0.49718  -0.49090
 Alpha  occ. eigenvalues --   -0.47957  -0.43697
 Alpha virt. eigenvalues --   -0.13568  -0.13223  -0.11661  -0.10247  -0.09190
 Alpha virt. eigenvalues --   -0.07411  -0.05333  -0.03987  -0.00777   0.00516
 Alpha virt. eigenvalues --    0.01443   0.02792   0.03046   0.04258   0.04728

  Beta  occ. eigenvalues --  -88.47599 -88.35378 -10.22816 -10.21623 -10.20837
  Beta  occ. eigenvalues --  -10.20308 -10.18141 -10.17194 -10.17151 -10.16538
  Beta  occ. eigenvalues --  -10.16422 -10.15764 -10.15531 -10.15335  -8.06642
  Beta  occ. eigenvalues --   -7.94695  -6.08537  -6.08483  -6.07755  -5.96874
  Beta  occ. eigenvalues --   -5.96381  -5.95606  -1.12276  -1.08068  -1.04852
  Beta  occ. eigenvalues --   -0.99710  -0.97110  -0.96484  -0.93574  -0.90941
  Beta  occ. eigenvalues --   -0.83550  -0.82574  -0.82488  -0.79460  -0.74968
  Beta  occ. eigenvalues --   -0.73877  -0.70556  -0.68973  -0.68055  -0.67259
  Beta  occ. eigenvalues --   -0.65563  -0.64863  -0.63997  -0.62936  -0.62096
  Beta  occ. eigenvalues --   -0.60089  -0.58980  -0.58265  -0.56392  -0.55811
  Beta  occ. eigenvalues --   -0.54412  -0.50819  -0.49493  -0.48625  -0.47805
  Beta  occ. eigenvalues --   -0.43694
  Beta virt. eigenvalues --   -0.21946  -0.13411  -0.12613  -0.11450  -0.10057
  Beta virt. eigenvalues --   -0.08693  -0.07310  -0.05190  -0.03789  -0.00758
  Beta virt. eigenvalues --    0.00653   0.01470   0.03004   0.03124   0.04676

 Mulliken charges and spin densities:
               1          2
     1  C   -0.059608  -0.002239
     2  C    0.024730   0.003124
     3  S   -0.015284  -0.002098
     4  C   -0.301843   0.000613
     5  C   -0.303313  -0.063523
     6  C    0.103918   0.969515
     7  C   -0.073649   0.001706
     8  C   -0.044383  -0.000066
     9  H    0.167866   0.000303
    10  C    0.077194   0.061965
    11  C   -0.114767  -0.035206
    12  C   -0.056617   0.065695
    13  C   -0.158858  -0.053808
    14  H    0.173681   0.005117
    15  H    0.179906   0.024726
    16  H    0.168627   0.004123
    17  H    0.166261   0.003767
    18  C   -0.117444  -0.000284
    19  H    0.167997   0.000060
    20  H    0.137848   0.000550
    21  H    0.160168  -0.000045
    22  H    0.178123   0.000020
    23  H    0.158470  -0.000001
    24  S    0.380975   0.015987
 Sum of Mulliken charges =   1.00000   1.00000

 Dipole moment (field-independent basis, Debye):
    X=             -0.1574    Y=             -1.5660    Z=             -1.8117  Tot=              2.3999
 Quadrupole moment (field-independent basis, Debye-Ang):
   XX=            -49.3525   YY=            -76.3434   ZZ=            -85.9338
   XY=             -1.7511   XZ=              2.4902   YZ=              3.2083

 Normal termination of Gaussian 16 at Tue Jan 26 00:44:41 2021.
