 Gaussian 16, Revision A.03,
 Gaussian 16:  EM64L-G16RevA.03 25-Dec-2016

 ----------------------------------------------------------------------
 #P LC-wHPBE/TZVP iop(3/107=0209700000, 3/108=0209700000) scf=(conver=6
 ,fermi,ndamp=35,noincfock,novaracc,vshift=500,xqc)
 ----------------------------------------------------------------------

 ----------
 H10 C12 S2
 ----------
 Symbolic Z-matrix:
 Charge =  1 Multiplicity = 2

                         Standard orientation:
 ---------------------------------------------------------------------
 Center     Atomic      Atomic             Coordinates (Angstroms)
 Number     Number       Type             X           Y           Z
 ---------------------------------------------------------------------
      1          6           0        2.574063    1.434391   -0.049117
      2          6           0        1.368901    0.745264   -0.216328
      3         16           0       -0.093606    1.678504   -0.585022
      4          6           0        1.397687   -0.626896   -0.046009
      5          6           0       -1.500395   -0.811934    0.077279
      6          6           0       -1.478004   -0.220423    1.307027
      7          6           0        3.746915    0.783096    0.229547
      8          6           0        2.584351   -1.293751    0.256604
      9          1           0        0.039943   -1.860892   -1.547006
     10          6           0       -2.473105   -0.786527   -0.925649
     11          6           0       -2.645316    0.559969    1.492438
     12          6           0       -3.655495    0.649979    0.563531
     13          6           0       -3.583956   -0.035098   -0.656753
     14          1           0       -2.357645   -1.302286   -1.874829
     15          1           0       -2.763398    1.119309    2.419207
     16          1           0       -4.527775    1.262476    0.773175
     17          1           0       -4.391412    0.038194   -1.378729
     18          6           0        3.759914   -0.597536    0.384558
     19          1           0        2.557315    2.514169   -0.138510
     20          1           0        0.525974    2.528359   -1.431800
     21          1           0        4.665467    1.345208    0.349638
     22          1           0        2.558102   -2.368477    0.406674
     23          1           0        4.681894   -1.115025    0.619767
     24         16           0       -0.004008   -1.738768   -0.208750
 ---------------------------------------------------------------------

 SCF Done:  E(ULC-wHPBE) =  -1258.73730583     A.U. after   33 cycles
 SCF Done:  E(ULC-wHPBE) =  -1258.73736380     a.u. after    2 cycles

 The electronic state is 2-A.
 Alpha  occ. eigenvalues --  -88.47060 -88.34880 -10.22274 -10.21316 -10.21072
 Alpha  occ. eigenvalues --  -10.20299 -10.17712 -10.16668 -10.16616 -10.16029
 Alpha  occ. eigenvalues --  -10.15947 -10.15236 -10.14999 -10.14806  -8.06095
 Alpha  occ. eigenvalues --   -7.94184  -6.08008  -6.07951  -6.07225  -5.96376
 Alpha  occ. eigenvalues --   -5.95885  -5.95113  -1.11938  -1.07768  -1.04444
 Alpha  occ. eigenvalues --   -0.99181  -0.96915  -0.96639  -0.93270  -0.90488
 Alpha  occ. eigenvalues --   -0.83507  -0.82458  -0.82095  -0.79359  -0.75004
 Alpha  occ. eigenvalues --   -0.73526  -0.70307  -0.68794  -0.68151  -0.67058
 Alpha  occ. eigenvalues --   -0.65297  -0.64768  -0.63734  -0.62746  -0.61831
 Alpha  occ. eigenvalues --   -0.60760  -0.58762  -0.58211  -0.56119  -0.55799
 Alpha  occ. eigenvalues --   -0.54087  -0.51381  -0.50318  -0.49445  -0.48822
 Alpha  occ. eigenvalues --   -0.47694  -0.43434
 Alpha virt. eigenvalues --   -0.13767  -0.13424  -0.11870  -0.10459  -0.09428
 Alpha virt. eigenvalues --   -0.07654  -0.05582  -0.04238  -0.01028   0.00301
 Alpha virt. eigenvalues --    0.01230   0.02585   0.02822   0.03952   0.04516

  Beta  occ. eigenvalues --  -88.47046 -88.34880 -10.22270 -10.21076 -10.20295
  Beta  occ. eigenvalues --  -10.19757 -10.17616 -10.16672 -10.16615 -10.16016
  Beta  occ. eigenvalues --  -10.15904 -10.15238 -10.14997 -10.14806  -8.06079
  Beta  occ. eigenvalues --   -7.94184  -6.07987  -6.07932  -6.07207  -5.96375
  Beta  occ. eigenvalues --   -5.95885  -5.95112  -1.11696  -1.07504  -1.04298
  Beta  occ. eigenvalues --   -0.99168  -0.96579  -0.95964  -0.93059  -0.90437
  Beta  occ. eigenvalues --   -0.83078  -0.82106  -0.82020  -0.79011  -0.74546
  Beta  occ. eigenvalues --   -0.73451  -0.70141  -0.68566  -0.67658  -0.66863
  Beta  occ. eigenvalues --   -0.65172  -0.64472  -0.63612  -0.62549  -0.61700
  Beta  occ. eigenvalues --   -0.59725  -0.58614  -0.57909  -0.56042  -0.55474
  Beta  occ. eigenvalues --   -0.54085  -0.50508  -0.49218  -0.48364  -0.47544
  Beta  occ. eigenvalues --   -0.43431
  Beta virt. eigenvalues --   -0.22241  -0.13609  -0.12824  -0.11659  -0.10274
  Beta virt. eigenvalues --   -0.08932  -0.07552  -0.05442  -0.04041  -0.01009
  Beta virt. eigenvalues --    0.00438   0.01257   0.02800   0.02902   0.04391

 Mulliken charges and spin densities:
               1          2
     1  C   -0.058841  -0.002260
     2  C    0.025921   0.003201
     3  S   -0.015540  -0.002107
     4  C   -0.301283   0.000581
     5  C   -0.302811  -0.061853
     6  C    0.103521   0.966612
     7  C   -0.072651   0.001755
     8  C   -0.043471  -0.000013
     9  H    0.167589   0.000318
    10  C    0.078581   0.060877
    11  C   -0.114251  -0.033562
    12  C   -0.055422   0.064499
    13  C   -0.158211  -0.052399
    14  H    0.172728   0.005251
    15  H    0.179254   0.024750
    16  H    0.167742   0.004263
    17  H    0.165393   0.003777
    18  C   -0.116187  -0.000309
    19  H    0.166938   0.000063
    20  H    0.137706   0.000562
    21  H    0.159143  -0.000046
    22  H    0.177028   0.000019
    23  H    0.157452   0.000001
    24  S    0.379670   0.016020
 Sum of Mulliken charges =   1.00000   1.00000

 Dipole moment (field-independent basis, Debye):
    X=             -0.1675    Y=             -1.5537    Z=             -1.8103  Tot=              2.3915
 Quadrupole moment (field-independent basis, Debye-Ang):
   XX=            -49.3454   YY=            -76.3729   ZZ=            -85.9587
   XY=             -1.7566   XZ=              2.4880   YZ=              3.2032

 Normal termination of Gaussian 16 at Mon Jan 25 23:28:25 2021.
