 Gaussian 16, Revision A.03,
 Gaussian 16:  EM64L-G16RevA.03 25-Dec-2016

 ----------------------------------------------------------------------
 #P LC-wHPBE/TZVP iop(3/107=0219700000, 3/108=0219700000) scf=(conver=6
 ,fermi,ndamp=35,noincfock,novaracc,vshift=500,xqc)
 ----------------------------------------------------------------------

 ----------
 H10 C12 S2
 ----------
 Symbolic Z-matrix:
 Charge =  1 Multiplicity = 2

                         Standard orientation:
 ---------------------------------------------------------------------
 Center     Atomic      Atomic             Coordinates (Angstroms)
 Number     Number       Type             X           Y           Z
 ---------------------------------------------------------------------
      1          6           0        2.574063    1.434391   -0.049117
      2          6           0        1.368901    0.745264   -0.216328
      3         16           0       -0.093606    1.678504   -0.585022
      4          6           0        1.397687   -0.626896   -0.046009
      5          6           0       -1.500395   -0.811934    0.077279
      6          6           0       -1.478004   -0.220423    1.307027
      7          6           0        3.746915    0.783096    0.229547
      8          6           0        2.584351   -1.293751    0.256604
      9          1           0        0.039943   -1.860892   -1.547006
     10          6           0       -2.473105   -0.786527   -0.925649
     11          6           0       -2.645316    0.559969    1.492438
     12          6           0       -3.655495    0.649979    0.563531
     13          6           0       -3.583956   -0.035098   -0.656753
     14          1           0       -2.357645   -1.302286   -1.874829
     15          1           0       -2.763398    1.119309    2.419207
     16          1           0       -4.527775    1.262476    0.773175
     17          1           0       -4.391412    0.038194   -1.378729
     18          6           0        3.759914   -0.597536    0.384558
     19          1           0        2.557315    2.514169   -0.138510
     20          1           0        0.525974    2.528359   -1.431800
     21          1           0        4.665467    1.345208    0.349638
     22          1           0        2.558102   -2.368477    0.406674
     23          1           0        4.681894   -1.115025    0.619767
     24         16           0       -0.004008   -1.738768   -0.208750
 ---------------------------------------------------------------------

 SCF Done:  E(ULC-wHPBE) =  -1258.74475431     A.U. after   33 cycles
 SCF Done:  E(ULC-wHPBE) =  -1258.74480987     a.u. after    2 cycles

 The electronic state is 2-A.
 Alpha  occ. eigenvalues --  -88.47648 -88.35416 -10.22849 -10.21895 -10.21655
 Alpha  occ. eigenvalues --  -10.20878 -10.18272 -10.17218 -10.17187 -10.16581
 Alpha  occ. eigenvalues --  -10.16501 -10.15798 -10.15568 -10.15370  -8.06693
 Alpha  occ. eigenvalues --   -7.94733  -6.08593  -6.08536  -6.07807  -5.96911
 Alpha  occ. eigenvalues --   -5.96418  -5.95643  -1.12555  -1.08369  -1.05034
 Alpha  occ. eigenvalues --   -0.99758  -0.97478  -0.97201  -0.93820  -0.91026
 Alpha  occ. eigenvalues --   -0.84011  -0.82954  -0.82601  -0.79844  -0.75464
 Alpha  occ. eigenvalues --   -0.73980  -0.70751  -0.69230  -0.68577  -0.67483
 Alpha  occ. eigenvalues --   -0.65717  -0.65185  -0.64146  -0.63159  -0.62251
 Alpha  occ. eigenvalues --   -0.61171  -0.59159  -0.58595  -0.56488  -0.56162
 Alpha  occ. eigenvalues --   -0.54435  -0.51765  -0.50657  -0.49735  -0.49106
 Alpha  occ. eigenvalues --   -0.47973  -0.43715
 Alpha virt. eigenvalues --   -0.13556  -0.13210  -0.11647  -0.10234  -0.09175
 Alpha virt. eigenvalues --   -0.07396  -0.05317  -0.03973  -0.00762   0.00530
 Alpha virt. eigenvalues --    0.01457   0.02805   0.03060   0.04278   0.04742

  Beta  occ. eigenvalues --  -88.47634 -88.35416 -10.22848 -10.21659 -10.20874
  Beta  occ. eigenvalues --  -10.20333 -10.18174 -10.17225 -10.17186 -10.16571
  Beta  occ. eigenvalues --  -10.16454 -10.15799 -10.15566 -10.15370  -8.06677
  Beta  occ. eigenvalues --   -7.94732  -6.08571  -6.08517  -6.07789  -5.96911
  Beta  occ. eigenvalues --   -5.96418  -5.95643  -1.12312  -1.08104  -1.04887
  Beta  occ. eigenvalues --   -0.99746  -0.97143  -0.96515  -0.93606  -0.90974
  Beta  occ. eigenvalues --   -0.83578  -0.82603  -0.82517  -0.79488  -0.74994
  Beta  occ. eigenvalues --   -0.73905  -0.70582  -0.68999  -0.68079  -0.67284
  Beta  occ. eigenvalues --   -0.65588  -0.64887  -0.64022  -0.62961  -0.62122
  Beta  occ. eigenvalues --   -0.60112  -0.59004  -0.58287  -0.56414  -0.55831
  Beta  occ. eigenvalues --   -0.54434  -0.50840  -0.49511  -0.48640  -0.47821
  Beta  occ. eigenvalues --   -0.43712
  Beta virt. eigenvalues --   -0.21923  -0.13399  -0.12599  -0.11437  -0.10043
  Beta virt. eigenvalues --   -0.08677  -0.07294  -0.05175  -0.03774  -0.00743
  Beta virt. eigenvalues --    0.00667   0.01483   0.03016   0.03137   0.04694

 Mulliken charges and spin densities:
               1          2
     1  C   -0.059654  -0.002259
     2  C    0.024682   0.003136
     3  S   -0.015201  -0.002120
     4  C   -0.301893   0.000606
     5  C   -0.303326  -0.063654
     6  C    0.103785   0.969745
     7  C   -0.073709   0.001728
     8  C   -0.044436  -0.000037
     9  H    0.167891   0.000304
    10  C    0.077129   0.062047
    11  C   -0.114776  -0.035329
    12  C   -0.056698   0.065779
    13  C   -0.158898  -0.053920
    14  H    0.173750   0.005109
    15  H    0.179958   0.024728
    16  H    0.168691   0.004114
    17  H    0.166324   0.003767
    18  C   -0.117518  -0.000324
    19  H    0.168062   0.000063
    20  H    0.137852   0.000557
    21  H    0.160230  -0.000046
    22  H    0.178188   0.000019
    23  H    0.158530   0.000002
    24  S    0.381038   0.015985
 Sum of Mulliken charges =   1.00000   1.00000

 Dipole moment (field-independent basis, Debye):
    X=             -0.1566    Y=             -1.5660    Z=             -1.8130  Tot=              2.4008
 Quadrupole moment (field-independent basis, Debye-Ang):
   XX=            -49.3520   YY=            -76.3408   ZZ=            -85.9326
   XY=             -1.7511   XZ=              2.4916   YZ=              3.2088

 Normal termination of Gaussian 16 at Tue Jan 26 00:26:46 2021.
