 Gaussian 16, Revision A.03,
 Gaussian 16:  EM64L-G16RevA.03 25-Dec-2016

 ----------------------------------------------------------------------
 #P LC-wHPBE/TZVP iop(3/107=0328100000, 3/108=0328100000) scf=(conver=6
 ,fermi,ndamp=35,noincfock,novaracc,vshift=500,xqc)
 ----------------------------------------------------------------------

 ----------
 H10 C12 S2
 ----------
 Symbolic Z-matrix:
 Charge =  0 Multiplicity = 1

                         Standard orientation:
 ---------------------------------------------------------------------
 Center     Atomic      Atomic             Coordinates (Angstroms)
 Number     Number       Type             X           Y           Z
 ---------------------------------------------------------------------
      1          6           0        2.574063    1.434391   -0.049117
      2          6           0        1.368901    0.745264   -0.216328
      3         16           0       -0.093606    1.678504   -0.585022
      4          6           0        1.397687   -0.626896   -0.046009
      5          6           0       -1.500395   -0.811934    0.077279
      6          6           0       -1.478004   -0.220423    1.307027
      7          6           0        3.746915    0.783096    0.229547
      8          6           0        2.584351   -1.293751    0.256604
      9          1           0        0.039943   -1.860892   -1.547006
     10          6           0       -2.473105   -0.786527   -0.925649
     11          6           0       -2.645316    0.559969    1.492438
     12          6           0       -3.655495    0.649979    0.563531
     13          6           0       -3.583956   -0.035098   -0.656753
     14          1           0       -2.357645   -1.302286   -1.874829
     15          1           0       -2.763398    1.119309    2.419207
     16          1           0       -4.527775    1.262476    0.773175
     17          1           0       -4.391412    0.038194   -1.378729
     18          6           0        3.759914   -0.597536    0.384558
     19          1           0        2.557315    2.514169   -0.138510
     20          1           0        0.525974    2.528359   -1.431800
     21          1           0        4.665467    1.345208    0.349638
     22          1           0        2.558102   -2.368477    0.406674
     23          1           0        4.681894   -1.115025    0.619767
     24         16           0       -0.004008   -1.738768   -0.208750
 ---------------------------------------------------------------------

 SCF Done:  E(RLC-wHPBE) =  -1259.03822585     A.U. after   18 cycles

 The electronic state is 1-A.
 Alpha  occ. eigenvalues --  -88.37561 -88.27997 -10.14365 -10.14146 -10.10850
 Alpha  occ. eigenvalues --  -10.09974 -10.09811 -10.09689 -10.08508 -10.06436
 Alpha  occ. eigenvalues --  -10.05086 -10.04496 -10.03251  -9.99400  -7.96745
 Alpha  occ. eigenvalues --   -7.87394  -5.98482  -5.98308  -5.97581  -5.89366
 Alpha  occ. eigenvalues --   -5.88848  -5.88025  -1.03434  -0.98833  -0.94136
 Alpha  occ. eigenvalues --   -0.92854  -0.88545  -0.84281  -0.83238  -0.81428
 Alpha  occ. eigenvalues --   -0.75199  -0.73182  -0.69822  -0.67640  -0.65088
 Alpha  occ. eigenvalues --   -0.61966  -0.61130  -0.59182  -0.57401  -0.55453
 Alpha  occ. eigenvalues --   -0.55088  -0.53210  -0.53144  -0.50774  -0.49766
 Alpha  occ. eigenvalues --   -0.49386  -0.48290  -0.46842  -0.45300  -0.43610
 Alpha  occ. eigenvalues --   -0.40703  -0.40394  -0.38788  -0.34504  -0.31829
 Alpha  occ. eigenvalues --   -0.31399  -0.25383
 Alpha virt. eigenvalues --    0.01790   0.03135   0.05571   0.06769   0.09149
 Alpha virt. eigenvalues --    0.10358   0.11134   0.12153   0.13123   0.14601
 Alpha virt. eigenvalues --    0.15324   0.15953   0.17996   0.18161   0.18530

 Mulliken charges:
               1
     1  C   -0.081887
     2  C    0.008783
     3  S    0.007802
     4  C   -0.212028
     5  C   -0.356126
     6  C   -0.197490
     7  C   -0.106561
     8  C   -0.077066
     9  H    0.118770
    10  C    0.005838
    11  C   -0.184892
    12  C   -0.080575
    13  C   -0.205304
    14  H    0.123074
    15  H    0.104341
    16  H    0.112291
    17  H    0.115862
    18  C   -0.134043
    19  H    0.155976
    20  H    0.088000
    21  H    0.139971
    22  H    0.165768
    23  H    0.138439
    24  S    0.351057
 Sum of Mulliken charges =  -0.00000

 Dipole moment (field-independent basis, Debye):
    X=              4.8633    Y=             -1.0128    Z=             -4.6527  Tot=              6.8063
 Quadrupole moment (field-independent basis, Debye-Ang):
   XX=            -85.7196   YY=            -86.4478   ZZ=           -100.8665
   XY=             -1.1822   XZ=              5.5889   YZ=              2.7304

 Normal termination of Gaussian 16 at Mon Jan 25 21:55:27 2021.
