 Gaussian 16, Revision A.03,
 Gaussian 16:  EM64L-G16RevA.03 25-Dec-2016

 ----------------------------------------------------------------------
 #P LC-wHPBE/TZVP iop(3/107=0156200000, 3/108=0156200000) scf=(conver=6
 ,fermi,ndamp=35,noincfock,novaracc,vshift=500,xqc)
 ----------------------------------------------------------------------

 ----------
 H10 C12 S2
 ----------
 Symbolic Z-matrix:
 Charge =  1 Multiplicity = 2

                         Standard orientation:
 ---------------------------------------------------------------------
 Center     Atomic      Atomic             Coordinates (Angstroms)
 Number     Number       Type             X           Y           Z
 ---------------------------------------------------------------------
      1          6           0        2.574063    1.434391   -0.049117
      2          6           0        1.368901    0.745264   -0.216328
      3         16           0       -0.093606    1.678504   -0.585022
      4          6           0        1.397687   -0.626896   -0.046009
      5          6           0       -1.500395   -0.811934    0.077279
      6          6           0       -1.478004   -0.220423    1.307027
      7          6           0        3.746915    0.783096    0.229547
      8          6           0        2.584351   -1.293751    0.256604
      9          1           0        0.039943   -1.860892   -1.547006
     10          6           0       -2.473105   -0.786527   -0.925649
     11          6           0       -2.645316    0.559969    1.492438
     12          6           0       -3.655495    0.649979    0.563531
     13          6           0       -3.583956   -0.035098   -0.656753
     14          1           0       -2.357645   -1.302286   -1.874829
     15          1           0       -2.763398    1.119309    2.419207
     16          1           0       -4.527775    1.262476    0.773175
     17          1           0       -4.391412    0.038194   -1.378729
     18          6           0        3.759914   -0.597536    0.384558
     19          1           0        2.557315    2.514169   -0.138510
     20          1           0        0.525974    2.528359   -1.431800
     21          1           0        4.665467    1.345208    0.349638
     22          1           0        2.558102   -2.368477    0.406674
     23          1           0        4.681894   -1.115025    0.619767
     24         16           0       -0.004008   -1.738768   -0.208750
 ---------------------------------------------------------------------

 SCF Done:  E(ULC-wHPBE) =  -1258.69557734     A.U. after   33 cycles
 SCF Done:  E(ULC-wHPBE) =  -1258.69562907     a.u. after    3 cycles

 The electronic state is 2-A.
 Alpha  occ. eigenvalues --  -88.43917 -88.32012 -10.19196 -10.18234 -10.17958
 Alpha  occ. eigenvalues --  -10.17205 -10.14717 -10.13724 -10.13562 -10.13071
 Alpha  occ. eigenvalues --  -10.12980 -10.12232 -10.11960 -10.11781  -8.02904
 Alpha  occ. eigenvalues --   -7.91264  -6.04876  -6.04818  -6.04108  -5.93506
 Alpha  occ. eigenvalues --   -5.93029  -5.92270  -1.08640  -1.04555  -1.01261
 Alpha  occ. eigenvalues --   -0.96057  -0.93856  -0.93576  -0.90260  -0.87527
 Alpha  occ. eigenvalues --   -0.80699  -0.79676  -0.79273  -0.76636  -0.72375
 Alpha  occ. eigenvalues --   -0.70924  -0.67759  -0.66290  -0.65706  -0.64604
 Alpha  occ. eigenvalues --   -0.62873  -0.62359  -0.61351  -0.60353  -0.59383
 Alpha  occ. eigenvalues --   -0.58385  -0.56423  -0.55965  -0.53968  -0.53662
 Alpha  occ. eigenvalues --   -0.52016  -0.49148  -0.48267  -0.47644  -0.47045
 Alpha  occ. eigenvalues --   -0.45954  -0.41713
 Alpha virt. eigenvalues --   -0.15160  -0.14830  -0.13346  -0.11943  -0.11039
 Alpha virt. eigenvalues --   -0.09291  -0.07244  -0.05918  -0.02709  -0.01184
 Alpha virt. eigenvalues --   -0.00244   0.01133   0.01255   0.01962   0.03051

  Beta  occ. eigenvalues --  -88.43903 -88.32012 -10.19181 -10.17961 -10.17201
  Beta  occ. eigenvalues --  -10.16692 -10.14625 -10.13717 -10.13560 -10.13042
  Beta  occ. eigenvalues --  -10.12950 -10.12234 -10.11958 -10.11781  -8.02888
  Beta  occ. eigenvalues --   -7.91264  -6.04855  -6.04800  -6.04089  -5.93506
  Beta  occ. eigenvalues --   -5.93028  -5.92270  -1.08397  -1.04294  -1.01117
  Beta  occ. eigenvalues --   -0.96045  -0.93503  -0.92961  -0.90056  -0.87479
  Beta  occ. eigenvalues --   -0.80285  -0.79333  -0.79221  -0.76321  -0.71973
  Beta  occ. eigenvalues --   -0.70853  -0.67606  -0.66082  -0.65233  -0.64436
  Beta  occ. eigenvalues --   -0.62767  -0.62081  -0.61249  -0.60161  -0.59237
  Beta  occ. eigenvalues --   -0.57474  -0.56318  -0.55689  -0.53873  -0.53376
  Beta  occ. eigenvalues --   -0.52014  -0.48496  -0.47400  -0.46623  -0.45820
  Beta  occ. eigenvalues --   -0.41708
  Beta virt. eigenvalues --   -0.24160  -0.14995  -0.14282  -0.13130  -0.11779
  Beta virt. eigenvalues --   -0.10558  -0.09191  -0.07119  -0.05729  -0.02690
  Beta virt. eigenvalues --   -0.01047  -0.00215   0.01358   0.01379   0.02413

 Mulliken charges and spin densities:
               1          2
     1  C   -0.054922  -0.002306
     2  C    0.030822   0.003613
     3  S   -0.017768  -0.002088
     4  C   -0.298237   0.000377
     5  C   -0.298359  -0.053863
     6  C    0.100514   0.951736
     7  C   -0.068285   0.002000
     8  C   -0.038989   0.000069
     9  H    0.165968   0.000326
    10  C    0.083539   0.055934
    11  C   -0.111954  -0.025819
    12  C   -0.050804   0.059252
    13  C   -0.154636  -0.045831
    14  H    0.168669   0.005959
    15  H    0.176684   0.024875
    16  H    0.164075   0.005002
    17  H    0.161929   0.003932
    18  C   -0.110554  -0.000163
    19  H    0.162275   0.000061
    20  H    0.137155   0.000582
    21  H    0.154938  -0.000052
    22  H    0.172351   0.000026
    23  H    0.153316  -0.000007
    24  S    0.372272   0.016385
 Sum of Mulliken charges =   1.00000   1.00000

 Dipole moment (field-independent basis, Debye):
    X=             -0.2242    Y=             -1.4841    Z=             -1.7950  Tot=              2.3398
 Quadrupole moment (field-independent basis, Debye-Ang):
   XX=            -49.2978   YY=            -76.5436   ZZ=            -86.1033
   XY=             -1.7874   XZ=              2.4756   YZ=              3.1719

 Normal termination of Gaussian 16 at Mon Jan 25 22:53:16 2021.
