 Gaussian 16, Revision A.03,
 Gaussian 16:  EM64L-G16RevA.03 25-Dec-2016

 ----------------------------------------------------------------------
 #P LC-wHPBE/TZVP iop(3/107=0221900000, 3/108=0221900000) scf=(conver=6
 ,fermi,ndamp=35,noincfock,novaracc,vshift=500,xqc)
 ----------------------------------------------------------------------

 ----------
 H10 C12 S2
 ----------
 Symbolic Z-matrix:
 Charge =  1 Multiplicity = 2

                         Standard orientation:
 ---------------------------------------------------------------------
 Center     Atomic      Atomic             Coordinates (Angstroms)
 Number     Number       Type             X           Y           Z
 ---------------------------------------------------------------------
      1          6           0        2.574063    1.434391   -0.049117
      2          6           0        1.368901    0.745264   -0.216328
      3         16           0       -0.093606    1.678504   -0.585022
      4          6           0        1.397687   -0.626896   -0.046009
      5          6           0       -1.500395   -0.811934    0.077279
      6          6           0       -1.478004   -0.220423    1.307027
      7          6           0        3.746915    0.783096    0.229547
      8          6           0        2.584351   -1.293751    0.256604
      9          1           0        0.039943   -1.860892   -1.547006
     10          6           0       -2.473105   -0.786527   -0.925649
     11          6           0       -2.645316    0.559969    1.492438
     12          6           0       -3.655495    0.649979    0.563531
     13          6           0       -3.583956   -0.035098   -0.656753
     14          1           0       -2.357645   -1.302286   -1.874829
     15          1           0       -2.763398    1.119309    2.419207
     16          1           0       -4.527775    1.262476    0.773175
     17          1           0       -4.391412    0.038194   -1.378729
     18          6           0        3.759914   -0.597536    0.384558
     19          1           0        2.557315    2.514169   -0.138510
     20          1           0        0.525974    2.528359   -1.431800
     21          1           0        4.665467    1.345208    0.349638
     22          1           0        2.558102   -2.368477    0.406674
     23          1           0        4.681894   -1.115025    0.619767
     24         16           0       -0.004008   -1.738768   -0.208750
 ---------------------------------------------------------------------

 SCF Done:  E(ULC-wHPBE) =  -1258.74635560     A.U. after   33 cycles
 SCF Done:  E(ULC-wHPBE) =  -1258.74642584     a.u. after    2 cycles

 The electronic state is 2-A.
 Alpha  occ. eigenvalues --  -88.47777 -88.35532 -10.22977 -10.22025 -10.21782
 Alpha  occ. eigenvalues --  -10.21004 -10.18395 -10.17341 -10.17313 -10.16703
 Alpha  occ. eigenvalues --  -10.16623 -10.15921 -10.15692 -10.15494  -8.06825
 Alpha  occ. eigenvalues --   -7.94852  -6.08721  -6.08665  -6.07935  -5.97028
 Alpha  occ. eigenvalues --   -5.96534  -5.95758  -1.12690  -1.08501  -1.05163
 Alpha  occ. eigenvalues --   -0.99884  -0.97602  -0.97325  -0.93940  -0.91143
 Alpha  occ. eigenvalues --   -0.84121  -0.83062  -0.82711  -0.79949  -0.75565
 Alpha  occ. eigenvalues --   -0.74079  -0.70847  -0.69325  -0.68670  -0.67575
 Alpha  occ. eigenvalues --   -0.65808  -0.65276  -0.64236  -0.63249  -0.62341
 Alpha  occ. eigenvalues --   -0.61261  -0.59245  -0.58677  -0.56568  -0.56241
 Alpha  occ. eigenvalues --   -0.54510  -0.51849  -0.50729  -0.49797  -0.49167
 Alpha  occ. eigenvalues --   -0.48033  -0.43774
 Alpha virt. eigenvalues --   -0.13511  -0.13165  -0.11600  -0.10186  -0.09121
 Alpha virt. eigenvalues --   -0.07341  -0.05261  -0.03916  -0.00705   0.00578
 Alpha virt. eigenvalues --    0.01505   0.02851   0.03110   0.04347   0.04790

  Beta  occ. eigenvalues --  -88.47763 -88.35532 -10.22976 -10.21786 -10.21000
  Beta  occ. eigenvalues --  -10.20462 -10.18298 -10.17348 -10.17311 -10.16694
  Beta  occ. eigenvalues --  -10.16576 -10.15922 -10.15690 -10.15494  -8.06809
  Beta  occ. eigenvalues --   -7.94851  -6.08700  -6.08646  -6.07917  -5.97027
  Beta  occ. eigenvalues --   -5.96533  -5.95758  -1.12447  -1.08236  -1.05016
  Beta  occ. eigenvalues --   -0.99872  -0.97267  -0.96636  -0.93726  -0.91091
  Beta  occ. eigenvalues --   -0.83688  -0.82712  -0.82625  -0.79591  -0.75091
  Beta  occ. eigenvalues --   -0.74003  -0.70678  -0.69093  -0.68171  -0.67375
  Beta  occ. eigenvalues --   -0.65678  -0.64977  -0.64111  -0.63050  -0.62213
  Beta  occ. eigenvalues --   -0.60196  -0.59087  -0.58369  -0.56494  -0.55909
  Beta  occ. eigenvalues --   -0.54508  -0.50911  -0.49573  -0.48700  -0.47880
  Beta  occ. eigenvalues --   -0.43772
  Beta virt. eigenvalues --   -0.21856  -0.13354  -0.12552  -0.11390  -0.09995
  Beta virt. eigenvalues --   -0.08623  -0.07240  -0.05118  -0.03717  -0.00686
  Beta virt. eigenvalues --    0.00715   0.01531   0.03062   0.03187   0.04757

 Mulliken charges and spin densities:
               1          2
     1  C   -0.059835  -0.002250
     2  C    0.024384   0.003111
     3  S   -0.015149  -0.002104
     4  C   -0.302023   0.000612
     5  C   -0.303426  -0.064062
     6  C    0.103849   0.970428
     7  C   -0.073953   0.001711
     8  C   -0.044656  -0.000050
     9  H    0.167957   0.000305
    10  C    0.076802   0.062312
    11  C   -0.114888  -0.035710
    12  C   -0.056983   0.066055
    13  C   -0.159053  -0.054255
    14  H    0.173980   0.005079
    15  H    0.180116   0.024723
    16  H    0.168904   0.004083
    17  H    0.166536   0.003766
    18  C   -0.117826  -0.000314
    19  H    0.168320   0.000062
    20  H    0.137889   0.000552
    21  H    0.160482  -0.000046
    22  H    0.178456   0.000018
    23  H    0.158781   0.000001
    24  S    0.381335   0.015974
 Sum of Mulliken charges =   1.00000   1.00000

 Dipole moment (field-independent basis, Debye):
    X=             -0.1545    Y=             -1.5689    Z=             -1.8133  Tot=              2.4028
 Quadrupole moment (field-independent basis, Debye-Ang):
   XX=            -49.3534   YY=            -76.3338   ZZ=            -85.9268
   XY=             -1.7498   XZ=              2.4920   YZ=              3.2099

 Normal termination of Gaussian 16 at Mon Jan 25 21:52:05 2021.
