 Gaussian 16, Revision A.03,
 Gaussian 16:  EM64L-G16RevA.03 25-Dec-2016

 ------------------------------------------------------------
 #P LC-wHPBE/TZVP iop(3/107=0343100000, 3/108=0343100000) opt
 ------------------------------------------------------------

 -------------
 H21 C21 N1 O3
 -------------
 Symbolic Z-matrix:
 Charge =  0 Multiplicity = 1

 SCF Done:  E(RLC-wHPBE) =  -1092.69858586     A.U. after   23 cycles
 SCF Done:  E(RLC-wHPBE) =  -1092.74565905     A.U. after   25 cycles
 SCF Done:  E(RLC-wHPBE) =  -1092.77240504     A.U. after   19 cycles
 SCF Done:  E(RLC-wHPBE) =  -1092.77623436     A.U. after   23 cycles
 SCF Done:  E(RLC-wHPBE) =  -1092.77814594     A.U. after   27 cycles
 SCF Done:  E(RLC-wHPBE) =  -1092.77929018     A.U. after   22 cycles
 SCF Done:  E(RLC-wHPBE) =  -1092.78048592     A.U. after   17 cycles
 SCF Done:  E(RLC-wHPBE) =  -1092.78310392     A.U. after   29 cycles
 SCF Done:  E(RLC-wHPBE) =  -1092.78405126     A.U. after   29 cycles
 SCF Done:  E(RLC-wHPBE) =  -1092.78477885     A.U. after   17 cycles
 SCF Done:  E(RLC-wHPBE) =  -1092.79340204     A.U. after   20 cycles
 SCF Done:  E(RLC-wHPBE) =  -1092.79342605     A.U. after   20 cycles
 SCF Done:  E(RLC-wHPBE) =  -1092.79343276     A.U. after   25 cycles
 SCF Done:  E(RLC-wHPBE) =  -1092.79343829     A.U. after   28 cycles
 SCF Done:  E(RLC-wHPBE) =  -1092.79344038     A.U. after   18 cycles
 SCF Done:  E(RLC-wHPBE) =  -1092.79344141     A.U. after   10 cycles
 SCF Done:  E(RLC-wHPBE) =  -1092.79344219     A.U. after   22 cycles
 SCF Done:  E(RLC-wHPBE) =  -1092.79344244     A.U. after   10 cycles
 SCF Done:  E(RLC-wHPBE) =  -1092.79344252     A.U. after    8 cycles
 SCF Done:  E(RLC-wHPBE) =  -1092.79344259     A.U. after    8 cycles
 Optimization completed.
    -- Stationary point found.

                         Standard orientation:
 ---------------------------------------------------------------------
 Center     Atomic      Atomic             Coordinates (Angstroms)
 Number     Number       Type             X           Y           Z
 ---------------------------------------------------------------------
      1          7           0        0.054086    0.063852    0.077784
      2          6           0       -0.275154   -1.311734    0.103506
      3          6           0       -1.260864   -1.827996   -0.723750
      4          6           0        0.386135   -2.184815    0.970218
      5          6           0       -1.598384   -3.175646   -0.688444
      6          6           0        0.074577   -3.526309    0.994438
      7          6           0       -0.925200   -4.034430    0.167909
      8          1           0       -1.784639   -1.164375   -1.405148
      9          1           0        1.158634   -1.797039    1.627427
     10          1           0       -2.379444   -3.537517   -1.347421
     11          1           0        0.588853   -4.206820    1.665799
     12          6           0       -0.970368    1.034170   -0.019727
     13          6           0       -2.134785    0.917606    0.724871
     14          6           0       -0.835797    2.133662   -0.869883
     15          6           0       -3.151989    1.858174    0.623575
     16          6           0       -1.829782    3.083912   -0.958163
     17          6           0       -3.000537    2.952781   -0.215611
     18          1           0       -2.255494    0.070396    1.393250
     19          1           0        0.067507    2.240735   -1.462783
     20          1           0       -4.048238    1.726664    1.219136
     21          1           0       -1.725247    3.941045   -1.615932
     22          8           0       -3.928451    3.936733   -0.380204
     23          6           0       -5.121818    3.840279    0.365278
     24          1           0       -5.681122    2.930406    0.115451
     25          1           0       -4.925953    3.859223    1.444250
     26          1           0       -5.719912    4.710924    0.096466
     27          8           0       -1.168220   -5.370782    0.273837
     28          6           0       -2.170458   -5.919715   -0.552884
     29          1           0       -3.151070   -5.472720   -0.348812
     30          1           0       -1.930216   -5.794070   -1.615623
     31          1           0       -2.208576   -6.983730   -0.319613
     32          6           0        1.409258    0.466483    0.091838
     33          6           0        2.372325   -0.232608   -0.620224
     34          6           0        1.812213    1.581496    0.830640
     35          6           0        3.707828    0.150754   -0.593850
     36          6           0        3.129962    1.982235    0.842322
     37          6           0        4.092694    1.267169    0.133583
     38          1           0        2.078678   -1.100647   -1.202616
     39          1           0        1.073246    2.139336    1.397822
     40          1           0        4.429565   -0.427688   -1.159301
     41          1           0        3.443945    2.849999    1.413878
     42          8           0        5.369584    1.734982    0.218075
     43          6           0        6.368506    1.037347   -0.492266
     44          1           0        6.460713    0.000867   -0.145468
     45          1           0        6.173119    1.041208   -1.571513
     46          1           0        7.303574    1.562498   -0.297656
 ---------------------------------------------------------------------

 The electronic state is 1-A.
 Alpha  occ. eigenvalues --  -18.96584 -18.96513 -18.96426 -14.19436 -10.13363
 Alpha  occ. eigenvalues --  -10.13293 -10.13197 -10.12724 -10.12661 -10.12573
 Alpha  occ. eigenvalues --  -10.11054 -10.11025 -10.10996 -10.07738 -10.07693
 Alpha  occ. eigenvalues --  -10.07652 -10.07621 -10.07608 -10.07605 -10.07563
 Alpha  occ. eigenvalues --  -10.07522 -10.07496 -10.07311 -10.07245 -10.07185
 Alpha  occ. eigenvalues --   -1.17442  -1.17372  -1.17283  -1.07951  -0.98220
 Alpha  occ. eigenvalues --   -0.98148  -0.96027  -0.88726  -0.88500  -0.87401
 Alpha  occ. eigenvalues --   -0.87165  -0.86670  -0.85266  -0.82228  -0.81818
 Alpha  occ. eigenvalues --   -0.78914  -0.74415  -0.73592  -0.72936  -0.71399
 Alpha  occ. eigenvalues --   -0.70958  -0.68463  -0.65961  -0.65943  -0.64729
 Alpha  occ. eigenvalues --   -0.62696  -0.62566  -0.60707  -0.59071  -0.58899
 Alpha  occ. eigenvalues --   -0.58518  -0.58452  -0.58364  -0.55766  -0.55731
 Alpha  occ. eigenvalues --   -0.55569  -0.53562  -0.53426  -0.53272  -0.53139
 Alpha  occ. eigenvalues --   -0.52156  -0.52062  -0.51868  -0.50117  -0.50023
 Alpha  occ. eigenvalues --   -0.49793  -0.49162  -0.48667  -0.47091  -0.46224
 Alpha  occ. eigenvalues --   -0.45984  -0.44651  -0.43444  -0.43288  -0.42933
 Alpha  occ. eigenvalues --   -0.42693  -0.42593  -0.38019  -0.36227  -0.35353
 Alpha  occ. eigenvalues --   -0.35111  -0.32333  -0.32101  -0.25479
 Alpha virt. eigenvalues --    0.05022   0.06970   0.07086   0.07663   0.07863
 Alpha virt. eigenvalues --    0.11987   0.12260   0.12667   0.12707   0.14524
 Alpha virt. eigenvalues --    0.14743   0.14882   0.16253   0.16484   0.16768

 Mulliken charges:
               1
     1  N   -0.055993
     2  C   -0.106716
     3  C   -0.108485
     4  C   -0.088151
     5  C   -0.213565
     6  C   -0.220957
     7  C    0.125976
     8  H    0.165553
     9  H    0.166473
    10  H    0.160179
    11  H    0.136397
    12  C   -0.100304
    13  C   -0.118530
    14  C   -0.086408
    15  C   -0.212781
    16  C   -0.220423
    17  C    0.125301
    18  H    0.164988
    19  H    0.169569
    20  H    0.160251
    21  H    0.136525
    22  O   -0.151477
    23  C   -0.246436
    24  H    0.124920
    25  H    0.126815
    26  H    0.146534
    27  O   -0.151600
    28  C   -0.246331
    29  H    0.125381
    30  H    0.126424
    31  H    0.146569
    32  C   -0.087799
    33  C   -0.121349
    34  C   -0.098858
    35  C   -0.212270
    36  C   -0.219261
    37  C    0.124860
    38  H    0.168812
    39  H    0.169291
    40  H    0.160053
    41  H    0.136522
    42  O   -0.151654
    43  C   -0.246277
    44  H    0.125694
    45  H    0.126164
    46  H    0.146375
 Sum of Mulliken charges =  -0.00000

 Dipole moment (field-independent basis, Debye):
    X=             -1.2766    Y=             -1.4160    Z=             -0.8355  Tot=              2.0815
 Quadrupole moment (field-independent basis, Debye-Ang):
   XX=           -117.9908   YY=           -143.0027   ZZ=           -144.9515
   XY=             -0.4202   XZ=             -7.0309   YZ=              7.7275

 Normal termination of Gaussian 16 at Sat Jan 16 23:25:12 2021.
